ITEM: TIMESTEP
0
ITEM: NUMBER OF ATOMS
72
ITEM: BOX BOUNDS pp pp pp
0.0000000000000000e+00 5.2900000000000000e+02
0.0000000000000000e+00 5.2900000000000000e+02
0.0000000000000000e+00 5.2900000000000000e+02
ITEM: ATOMS id type xs ys zs
1 1 0.5 0.5 0.5
2 2 0.5 0.5037 0.5
3 1 0.51 0.5 0.5
4 2 0.51 0.5037 0.5
5 1 0.52 0.5 0.5
6 2 0.52 0.5037 0.5
7 1 0.53 0.5 0.5
8 2 0.53 0.5037 0.5
9 1 0.54 0.5 0.5
10 2 0.54 0.5037 0.5
11 1 0.55 0.5 0.5
12 2 0.55 0.5037 0.5
13 1 0.56 0.5 0.5
14 2 0.56 0.5037 0.5
15 1 0.57 0.5 0.5
16 2 0.57 0.5037 0.5
17 1 0.58 0.5 0.5
18 2 0.58 0.5037 0.5
19 1 0.59 0.5 0.5
20 2 0.59 0.5037 0.5
21 1 0.6 0.5 0.5
22 2 0.6 0.5037 0.5
23 1 0.61 0.5 0.5
24 2 0.61 0.5037 0.5
25 1 0.62 0.5 0.5
26 2 0.62 0.5037 0.5
27 1 0.63 0.5 0.5
28 2 0.63 0.5037 0.5
29 1 0.64 0.5 0.5
30 2 0.64 0.5037 0.5
31 1 0.65 0.5 0.5
32 2 0.65 0.5037 0.5
33 1 0.66 0.5 0.5
34 2 0.66 0.5037 0.5
35 1 0.67 0.5 0.5
36 2 0.67 0.5037 0.5
37 1 0.68 0.5 0.5
38 2 0.68 0.5037 0.5
39 1 0.69 0.5 0.5
40 2 0.69 0.5037 0.5
41 1 0.7 0.5 0.5
42 2 0.7 0.5037 0.5
43 1 0.71 0.5 0.5
44 2 0.71 0.5037 0.5
45 1 0.72 0.5 0.5
46 2 0.72 0.5037 0.5
47 1 0.73 0.5 0.5
48 2 0.73 0.5037 0.5
49 1 0.74 0.5 0.5
50 2 0.74 0.5037 0.5
51 1 0.75 0.5 0.5
52 2 0.75 0.5037 0.5
53 1 0.76 0.5 0.5
54 2 0.76 0.5037 0.5
55 1 0.77 0.5 0.5
56 2 0.77 0.5037 0.5
57 1 0.78 0.5 0.5
58 2 0.78 0.5037 0.5
59 1 0.79 0.5 0.5
60 2 0.79 0.5037 0.5
61 1 0.8 0.5 0.5
62 2 0.8 0.5037 0.5
63 1 0.81 0.5 0.5
64 2 0.81 0.5037 0.5
65 1 0.82 0.5 0.5
66 2 0.82 0.5037 0.5
67 1 0.83 0.5 0.5
68 2 0.83 0.5037 0.5
69 1 0.84 0.5 0.5
70 2 0.84 0.5037 0.5
71 1 0.85 0.5 0.5
72 2 0.85 0.5037 0.5
ITEM: TIMESTEP
15000
ITEM: NUMBER OF ATOMS
72
ITEM: BOX BOUNDS pp pp pp
0.0000000000000000e+00 5.2900000000000000e+02
0.0000000000000000e+00 5.2900000000000000e+02
0.0000000000000000e+00 5.2900000000000000e+02
ITEM: ATOMS id type xs ys zs
5 1 0.523615 0.499357 0.498525
6 2 0.523141 0.496603 0.496099
12 2 0.551554 0.495095 0.498631
16 2 0.570965 0.499121 0.497805
19 1 0.591449 0.49917 0.498813
20 2 0.591261 0.495474 0.498882
26 2 0.6196 0.499442 0.494849
25 1 0.62074 0.499688 0.498381
29 1 0.640313 0.499129 0.4973
31 1 0.6504 0.499824 0.496965
32 2 0.650697 0.496144 0.496645
34 2 0.660718 0.499611 0.495237
36 2 0.669641 0.497023 0.495389
35 1 0.670056 0.499855 0.497724
60 2 0.787977 0.497715 0.499165
66 2 0.818701 0.498745 0.498177
2 2 0.506333 0.505039 0.495332
1 1 0.504347 0.503708 0.498173
3 1 0.513795 0.501269 0.497433
4 2 0.514473 0.504756 0.498458
17 1 0.581417 0.499811 0.499323
22 2 0.600466 0.504827 0.498931
28 2 0.630786 0.503551 0.497776
27 1 0.630481 0.500224 0.496166
33 1 0.660197 0.501044 0.498609
38 2 0.68029 0.500384 0.494347
37 1 0.680372 0.500355 0.498048
40 2 0.689889 0.504752 0.496971
39 1 0.69029 0.501386 0.498458
52 2 0.748718 0.506066 0.497351
64 2 0.808681 0.500003 0.499181
68 2 0.827737 0.500928 0.497326
67 1 0.824819 0.50286 0.496147
69 1 0.834685 0.503748 0.498919
72 2 0.845563 0.503797 0.497302
8 2 0.533267 0.498912 0.50191
7 1 0.531798 0.495521 0.502135
9 1 0.541725 0.496296 0.502255
10 2 0.541402 0.499503 0.500428
11 1 0.551802 0.49653 0.502039
13 1 0.561747 0.497069 0.503188
14 2 0.561515 0.493379 0.502961
15 1 0.571773 0.497444 0.501001
24 2 0.611285 0.498332 0.503413
30 2 0.639904 0.499573 0.500962
58 2 0.778054 0.497758 0.50127
62 2 0.798445 0.495941 0.503238
61 1 0.798469 0.498782 0.500857
63 1 0.808189 0.496682 0.50075
65 1 0.817897 0.498003 0.501688
18 2 0.580851 0.503014 0.501072
21 1 0.601164 0.50151 0.500431
23 1 0.611107 0.501441 0.501415
41 1 0.699831 0.503269 0.500739
42 2 0.698728 0.503842 0.504204
44 2 0.709962 0.500197 0.502095
43 1 0.709589 0.503466 0.500414
46 2 0.718812 0.501292 0.505197
45 1 0.719583 0.503111 0.50205
48 2 0.729933 0.504569 0.500941
47 1 0.729569 0.501578 0.503087
50 2 0.738122 0.507095 0.50125
49 1 0.739355 0.503588 0.501391
51 1 0.749249 0.503648 0.500099
54 2 0.758653 0.503346 0.505412
53 1 0.759323 0.503264 0.501756
56 2 0.76968 0.5005 0.500714
55 1 0.769184 0.503217 0.503191
57 1 0.778794 0.500447 0.503714
59 1 0.788457 0.500212 0.501868
70 2 0.833939 0.506088 0.501697
71 1 0.84447 0.504873 0.500688
ITEM: TIMESTEP
30000
ITEM: NUMBER OF ATOMS
72
ITEM: BOX BOUNDS pp pp pp
0.0000000000000000e+00 5.2900000000000000e+02
0.0000000000000000e+00 5.2900000000000000e+02
0.0000000000000000e+00 5.2900000000000000e+02
ITEM: ATOMS id type xs ys zs
30 2 0.641 0.497468 0.492327
5 1 0.53177 0.497329 0.499071
8 2 0.541841 0.494537 0.498389
18 2 0.58691 0.494911 0.497665
19 1 0.59387 0.499271 0.498913
23 1 0.613151 0.499394 0.498744
27 1 0.63131 0.497402 0.496462
31 1 0.649802 0.498803 0.498334
34 2 0.65958 0.497914 0.493623
62 2 0.792338 0.495413 0.499548
64 2 0.803071 0.498272 0.499231
65 1 0.812807 0.496395 0.499838
1 1 0.514188 0.506085 0.495662
2 2 0.51298 0.503433 0.493413
3 1 0.523231 0.501974 0.49668
4 2 0.525293 0.505033 0.497043
20 2 0.591318 0.501944 0.498672
22 2 0.604102 0.50258 0.499487
26 2 0.621473 0.50441 0.494149
25 1 0.622301 0.500983 0.495162
28 2 0.63247 0.500527 0.494892
29 1 0.640751 0.500187 0.494797
33 1 0.659043 0.501221 0.495204
36 2 0.669248 0.502832 0.498082
35 1 0.669183 0.500299 0.495368
38 2 0.678833 0.504729 0.493156
37 1 0.679124 0.501398 0.494738
40 2 0.689497 0.501175 0.497847
42 2 0.697632 0.503782 0.498112
46 2 0.715767 0.50626 0.49866
68 2 0.818083 0.502918 0.492805
67 1 0.819734 0.503121 0.496129
48 2 0.724682 0.509568 0.49785
69 1 0.828214 0.508418 0.497018
71 1 0.837831 0.508815 0.499942
6 2 0.530489 0.49711 0.502533
7 1 0.540428 0.493126 0.501505
9 1 0.550304 0.492413 0.501716
10 2 0.550504 0.49586 0.500411
11 1 0.559962 0.494823 0.500602
12 2 0.56052 0.493724 0.50408
13 1 0.569029 0.493552 0.505597
14 2 0.571102 0.493949 0.502565
15 1 0.576876 0.498161 0.501793
17 1 0.585826 0.493232 0.500799
21 1 0.603664 0.499499 0.501467
24 2 0.614109 0.497941 0.502009
59 1 0.783939 0.499268 0.504219
61 1 0.793034 0.495443 0.503169
63 1 0.803082 0.496661 0.502549
66 2 0.812996 0.492676 0.500263
16 2 0.577174 0.500178 0.504888
32 2 0.648747 0.500988 0.501116
39 1 0.687335 0.5028 0.500368
41 1 0.697331 0.504032 0.501824
44 2 0.707071 0.504164 0.505013
43 1 0.706944 0.501669 0.502261
45 1 0.716209 0.504857 0.502025
47 1 0.725754 0.507183 0.500476
49 1 0.735221 0.505051 0.502923
51 1 0.744762 0.505984 0.506161
52 2 0.745545 0.502451 0.505367
54 2 0.7543 0.501424 0.504349
53 1 0.754434 0.505011 0.503546
56 2 0.764276 0.501221 0.505164
55 1 0.764577 0.503973 0.50274
57 1 0.774258 0.501491 0.503854
58 2 0.77523 0.505033 0.504168
70 2 0.8287 0.506489 0.500123
72 2 0.837433 0.506287 0.502575
50 2 0.735825 0.508345 0.504416
60 2 0.783588 0.497519 0.507437
ITEM: TIMESTEP
45000
ITEM: NUMBER OF ATOMS
72
ITEM: BOX BOUNDS pp pp pp
0.0000000000000000e+00 5.2900000000000000e+02
0.0000000000000000e+00 5.2900000000000000e+02
0.0000000000000000e+00 5.2900000000000000e+02
ITEM: ATOMS id type xs ys zs
29 1 0.642499 0.49928 0.491123
36 2 0.6685 0.501708 0.490359
8 2 0.547929 0.490967 0.496701
18 2 0.588287 0.489224 0.498418
12 2 0.567382 0.494534 0.499621
21 1 0.606169 0.497184 0.499349
23 1 0.614764 0.497822 0.494293
27 1 0.634207 0.498022 0.497051
28 2 0.635123 0.497274 0.493519
31 1 0.649656 0.499378 0.498492
33 1 0.658131 0.499554 0.493136
34 2 0.6591 0.496278 0.494552
42 2 0.696448 0.499002 0.499698
64 2 0.794549 0.496614 0.499437
65 1 0.804375 0.497858 0.497681
1 1 0.525621 0.506727 0.492716
2 2 0.523231 0.505601 0.495349
3 1 0.533468 0.502169 0.496314
4 2 0.535436 0.505193 0.495537
22 2 0.60666 0.500851 0.498987
24 2 0.615937 0.500204 0.496869
26 2 0.623042 0.503488 0.49638
25 1 0.624441 0.500209 0.495249
30 2 0.643783 0.501788 0.493561
32 2 0.65143 0.502337 0.497118
35 1 0.667698 0.503304 0.493577
38 2 0.677869 0.506409 0.494695
37 1 0.676889 0.50388 0.497215
39 1 0.686743 0.503381 0.49896
41 1 0.696545 0.50264 0.49932
67 1 0.813701 0.501775 0.49774
45 1 0.712612 0.507825 0.499415
48 2 0.722876 0.511578 0.498488
69 1 0.81983 0.509497 0.496037
70 2 0.822751 0.507272 0.495438
72 2 0.827761 0.514994 0.499977
71 1 0.828769 0.511402 0.499693
9 1 0.558019 0.489152 0.500212
11 1 0.567352 0.492149 0.502469
13 1 0.577014 0.490998 0.505443
17 1 0.591081 0.491016 0.499995
5 1 0.539024 0.495004 0.501153
6 2 0.541969 0.497123 0.501902
7 1 0.548612 0.492418 0.500037
10 2 0.559167 0.492682 0.500337
14 2 0.577144 0.494699 0.505197
15 1 0.584715 0.497099 0.504358
19 1 0.596718 0.498853 0.50188
20 2 0.599059 0.497063 0.504113
60 2 0.77825 0.498603 0.502706
59 1 0.776359 0.49716 0.505577
62 2 0.786714 0.499853 0.502938
61 1 0.786347 0.497027 0.50533
63 1 0.795862 0.495323 0.502664
40 2 0.686078 0.502585 0.502516
44 2 0.705333 0.50768 0.503382
43 1 0.705023 0.504189 0.504498
46 2 0.714715 0.504867 0.500307
53 1 0.75049 0.506031 0.506809
54 2 0.750361 0.504007 0.503675
55 1 0.759614 0.501974 0.504349
56 2 0.761445 0.504001 0.506894
57 1 0.769282 0.504295 0.504082
66 2 0.805128 0.499949 0.500562
68 2 0.812581 0.50401 0.500439
47 1 0.722744 0.508481 0.500502
49 1 0.731913 0.50762 0.504812
16 2 0.586201 0.497078 0.507738
51 1 0.740859 0.505128 0.508374
58 2 0.769905 0.503208 0.507585
50 2 0.730617 0.50986 0.507521
52 2 0.742034 0.508609 0.507984
ITEM: TIMESTEP
60000
ITEM: NUMBER OF ATOMS
72
ITEM: BOX BOUNDS pp pp pp
0.0000000000000000e+00 5.2900000000000000e+02
0.0000000000000000e+00 5.2900000000000000e+02
0.0000000000000000e+00 5.2900000000000000e+02
ITEM: ATOMS id type xs ys zs
23 1 0.616722 0.497101 0.491887
29 1 0.644356 0.499258 0.490432
30 2 0.642863 0.497923 0.487359
33 1 0.660156 0.499563 0.492281
1 1 0.537243 0.506551 0.490751
24 2 0.615835 0.500551 0.490881
35 1 0.668739 0.504433 0.491648
7 1 0.556769 0.49176 0.498159
8 2 0.555337 0.488366 0.497776
9 1 0.565513 0.487293 0.499211
17 1 0.596108 0.490037 0.498968
6 2 0.549459 0.492998 0.499078
21 1 0.607875 0.496064 0.496488
22 2 0.609748 0.498964 0.497755
25 1 0.625752 0.498051 0.496015
27 1 0.635586 0.499556 0.495258
28 2 0.636186 0.495968 0.494783
32 2 0.653728 0.49894 0.49474
34 2 0.661199 0.497529 0.495199
64 2 0.786055 0.495568 0.498012
68 2 0.806177 0.498973 0.499367
3 1 0.543912 0.501796 0.496765
4 2 0.546669 0.502997 0.494585
26 2 0.625088 0.501241 0.497671
31 1 0.651619 0.500836 0.497089
36 2 0.67012 0.502731 0.494661
38 2 0.677582 0.507255 0.49669
37 1 0.675141 0.506085 0.49921
39 1 0.684734 0.503307 0.49791
40 2 0.684565 0.504928 0.494594
41 1 0.694564 0.501393 0.498768
66 2 0.794832 0.501201 0.49559
65 1 0.795687 0.501539 0.499251
70 2 0.810694 0.506464 0.492522
2 2 0.538504 0.508753 0.493394
45 1 0.710021 0.508115 0.498929
69 1 0.811551 0.508268 0.495609
72 2 0.820001 0.515002 0.496471
71 1 0.817671 0.515643 0.49921
10 2 0.567267 0.490351 0.500269
11 1 0.574415 0.489968 0.502643
12 2 0.57488 0.48652 0.503852
13 1 0.584315 0.490219 0.505009
18 2 0.598041 0.487981 0.501412
5 1 0.547962 0.494138 0.502259
15 1 0.592458 0.495132 0.507027
19 1 0.602562 0.494996 0.50505
20 2 0.604885 0.495558 0.50222
42 2 0.693873 0.499761 0.502071
59 1 0.770616 0.49768 0.503441
60 2 0.771357 0.497183 0.506992
61 1 0.780165 0.499031 0.506253
63 1 0.787915 0.495647 0.501186
56 2 0.755058 0.504163 0.504406
55 1 0.754536 0.501177 0.506456
57 1 0.764087 0.504486 0.506744
67 1 0.805697 0.502191 0.501186
43 1 0.701094 0.507778 0.503246
44 2 0.701781 0.509714 0.500126
46 2 0.711485 0.510921 0.500751
48 2 0.71935 0.512586 0.501955
47 1 0.719734 0.508899 0.501866
49 1 0.728414 0.510551 0.505957
54 2 0.747519 0.507829 0.506975
14 2 0.583113 0.491676 0.508175
16 2 0.592725 0.493072 0.5101
52 2 0.73539 0.504445 0.510931
51 1 0.737084 0.506421 0.508286
53 1 0.746924 0.506434 0.510319
58 2 0.765046 0.501087 0.507761
62 2 0.778861 0.50211 0.507776
50 2 0.726656 0.511005 0.509123
ITEM: TIMESTEP
75000
ITEM: NUMBER OF ATOMS
72
ITEM: BOX BOUNDS pp pp pp
0.0000000000000000e+00 5.2900000000000000e+02
0.0000000000000000e+00 5.2900000000000000e+02
0.0000000000000000e+00 5.2900000000000000e+02
ITEM: ATOMS id type xs ys zs
23 1 0.618285 0.497353 0.490545
24 2 0.617127 0.495583 0.487511
29 1 0.645392 0.498923 0.489292
33 1 0.662622 0.499447 0.49142
1 1 0.549907 0.506823 0.489962
35 1 0.671192 0.504631 0.491637
2 2 0.551958 0.509039 0.487751
7 1 0.565054 0.490862 0.496306
8 2 0.565004 0.487542 0.497937
9 1 0.573268 0.485692 0.49882
10 2 0.574805 0.48897 0.499704
18 2 0.602823 0.492046 0.499188
21 1 0.609515 0.495316 0.495582
22 2 0.612912 0.496718 0.496199
26 2 0.625262 0.498357 0.498514
25 1 0.626898 0.496327 0.495816
27 1 0.635952 0.499429 0.492402
28 2 0.637591 0.499289 0.495757
30 2 0.646449 0.498108 0.492783
32 2 0.653992 0.498148 0.495383
64 2 0.777307 0.495207 0.498917
63 1 0.780087 0.497462 0.499952
3 1 0.553742 0.500785 0.496649
4 2 0.557029 0.500414 0.495025
31 1 0.653458 0.501726 0.494509
34 2 0.664047 0.500124 0.494761
39 1 0.682683 0.503948 0.495208
40 2 0.683024 0.501397 0.497876
41 1 0.691751 0.501882 0.498889
65 1 0.78773 0.503811 0.499285
36 2 0.669063 0.507474 0.49255
38 2 0.678208 0.508202 0.49878
44 2 0.698061 0.509997 0.497301
46 2 0.706853 0.510226 0.496667
70 2 0.800821 0.508686 0.494667
69 1 0.803546 0.507648 0.496994
71 1 0.80607 0.517489 0.496356
6 2 0.553955 0.491727 0.501531
11 1 0.582206 0.485318 0.50316
12 2 0.581995 0.488978 0.503791
13 1 0.590894 0.49009 0.505254
17 1 0.601548 0.488703 0.499949
19 1 0.610266 0.490689 0.504709
5 1 0.557173 0.493398 0.502299
20 2 0.609049 0.494172 0.504863
56 2 0.746568 0.500545 0.505282
60 2 0.762479 0.497974 0.500931
59 1 0.765023 0.498316 0.503659
42 2 0.690443 0.501674 0.502286
58 2 0.760064 0.500753 0.507364
61 1 0.774163 0.501118 0.506786
66 2 0.789628 0.501915 0.501714
67 1 0.797059 0.501602 0.501607
68 2 0.797519 0.505235 0.501849
37 1 0.674826 0.507934 0.500257
43 1 0.69688 0.510298 0.500757
45 1 0.70705 0.509897 0.500403
48 2 0.716343 0.512591 0.505109
47 1 0.716742 0.509604 0.502972
49 1 0.725244 0.513065 0.506967
52 2 0.73448 0.508429 0.506542
72 2 0.807009 0.517757 0.499985
14 2 0.591726 0.487596 0.507878
16 2 0.599279 0.489853 0.511882
15 1 0.599729 0.492259 0.509121
51 1 0.73307 0.507445 0.509805
53 1 0.742247 0.506193 0.513571
55 1 0.749087 0.501644 0.507832
57 1 0.758699 0.503746 0.509126
62 2 0.773533 0.500048 0.510306
50 2 0.724823 0.510732 0.509881
54 2 0.743634 0.509523 0.512628
ITEM: TIMESTEP
90000
ITEM: NUMBER OF ATOMS
72
ITEM: BOX BOUNDS pp pp pp
0.0000000000000000e+00 5.2900000000000000e+02
0.0000000000000000e+00 5.2900000000000000e+02
0.0000000000000000e+00 5.2900000000000000e+02
ITEM: ATOMS id type xs ys zs
23 1 0.61911 0.496762 0.489468
24 2 0.620795 0.493467 0.489556
27 1 0.636604 0.498585 0.490895
29 1 0.646534 0.498418 0.490091
33 1 0.665327 0.499213 0.491012
2 2 0.563534 0.50453 0.487326
28 2 0.635608 0.502085 0.491286
30 2 0.646478 0.500897 0.487398
31 1 0.655598 0.5021 0.492119
34 2 0.666493 0.502594 0.491986
36 2 0.673118 0.506143 0.488321
35 1 0.672974 0.505826 0.492043
1 1 0.563673 0.507374 0.48962
9 1 0.581033 0.484835 0.499015
7 1 0.573394 0.489432 0.495201
8 2 0.574859 0.487025 0.497609
10 2 0.582926 0.487961 0.499349
4 2 0.566206 0.499007 0.495064
3 1 0.562529 0.499455 0.495383
21 1 0.612155 0.493874 0.49606
22 2 0.614845 0.493114 0.493693
26 2 0.625978 0.494081 0.497105
25 1 0.627951 0.495829 0.494599
64 2 0.770762 0.496106 0.498766
63 1 0.771713 0.499647 0.498832
32 2 0.655597 0.500335 0.495345
39 1 0.680043 0.503042 0.494845
40 2 0.681193 0.505915 0.49283
41 1 0.689249 0.503436 0.49893
43 1 0.694231 0.511925 0.498139
44 2 0.69711 0.510705 0.496086
66 2 0.777964 0.507611 0.499502
70 2 0.793087 0.511332 0.497299
69 1 0.79578 0.509364 0.498822
72 2 0.791577 0.517866 0.493752
71 1 0.794899 0.518457 0.495114
11 1 0.589705 0.483039 0.503701
12 2 0.590624 0.480345 0.501368
5 1 0.565903 0.492466 0.501434
13 1 0.597202 0.489179 0.506245
18 2 0.603813 0.488475 0.500004
14 2 0.599569 0.487092 0.504343
17 1 0.607506 0.488759 0.500567
20 2 0.61591 0.486537 0.506279
19 1 0.616929 0.488633 0.503394
6 2 0.565464 0.494608 0.504412
59 1 0.758822 0.499486 0.503053
68 2 0.788437 0.498976 0.503112
42 2 0.687891 0.503186 0.502426
60 2 0.761704 0.500842 0.504837
65 1 0.78009 0.50464 0.500496
67 1 0.789478 0.502471 0.502305
37 1 0.67551 0.50983 0.500892
38 2 0.679072 0.50893 0.500472
46 2 0.703093 0.508255 0.502076
45 1 0.70355 0.511739 0.501125
47 1 0.713035 0.510917 0.503728
48 2 0.712422 0.513652 0.506156
16 2 0.60553 0.487108 0.513617
15 1 0.606425 0.488898 0.510491
62 2 0.767209 0.499073 0.509182
55 1 0.743046 0.502355 0.508635
56 2 0.744816 0.500107 0.510903
58 2 0.753586 0.500642 0.507488
57 1 0.752874 0.502013 0.51081
61 1 0.767285 0.502375 0.507598
50 2 0.722431 0.511 0.509008
49 1 0.721477 0.514407 0.508114
52 2 0.729144 0.508559 0.513378
51 1 0.729989 0.509655 0.50993
53 1 0.737183 0.505835 0.515685
54 2 0.737341 0.509267 0.517018
ITEM: TIMESTEP
105000
ITEM: NUMBER OF ATOMS
72
ITEM: BOX BOUNDS pp pp pp
0.0000000000000000e+00 5.2900000000000000e+02
0.0000000000000000e+00 5.2900000000000000e+02
0.0000000000000000e+00 5.2900000000000000e+02
ITEM: ATOMS id type xs ys zs
23 1 0.620101 0.495236 0.488565
24 2 0.622808 0.496412 0.490792
27 1 0.637518 0.498575 0.489796
28 2 0.636272 0.498053 0.486304
30 2 0.647903 0.496621 0.490649
2 2 0.574454 0.50565 0.49142
1 1 0.576941 0.506262 0.488688
29 1 0.64734 0.50009 0.489367
31 1 0.657287 0.501182 0.489694
34 2 0.667641 0.502901 0.488151
33 1 0.667417 0.500283 0.490749
36 2 0.677181 0.504082 0.490935
35 1 0.674955 0.506766 0.492041
72 2 0.785293 0.517809 0.492177
9 1 0.589343 0.484164 0.499839
20 2 0.622156 0.485228 0.498962
7 1 0.581396 0.487678 0.494838
8 2 0.584122 0.48859 0.497165
10 2 0.590931 0.487411 0.498909
22 2 0.615069 0.489092 0.494443
21 1 0.615906 0.491805 0.49688
26 2 0.628214 0.491428 0.494076
3 1 0.572393 0.498827 0.494106
4 2 0.575689 0.498106 0.495578
25 1 0.628798 0.495106 0.493515
64 2 0.760642 0.499797 0.498419
32 2 0.657511 0.503325 0.492732
40 2 0.675439 0.502025 0.495721
39 1 0.678159 0.503949 0.494093
41 1 0.686849 0.505309 0.49855
63 1 0.763704 0.501937 0.498457
43 1 0.692168 0.513146 0.495676
44 2 0.694409 0.512153 0.498403
71 1 0.782106 0.517635 0.494174
12 2 0.596686 0.480074 0.506085
11 1 0.597807 0.47974 0.502552
5 1 0.574736 0.491978 0.500885
13 1 0.604002 0.486874 0.506675
14 2 0.602999 0.489274 0.504021
17 1 0.612537 0.48862 0.501838
18 2 0.614479 0.485619 0.501095
19 1 0.622188 0.486119 0.502545
6 2 0.578243 0.492675 0.499907
60 2 0.750886 0.499235 0.50212
42 2 0.685378 0.504137 0.501659
59 1 0.753271 0.501565 0.503844
66 2 0.773809 0.502916 0.501016
65 1 0.772239 0.506169 0.501159
67 1 0.78139 0.503319 0.502671
68 2 0.782168 0.506079 0.500387
37 1 0.67661 0.511555 0.500478
38 2 0.679664 0.509474 0.500694
46 2 0.698023 0.514773 0.504529
45 1 0.699814 0.512458 0.502159
47 1 0.709508 0.511759 0.504332
48 2 0.709766 0.515146 0.505785
70 2 0.783663 0.51343 0.50014
69 1 0.786792 0.511381 0.50018
16 2 0.611091 0.48505 0.514391
15 1 0.612818 0.485676 0.511196
62 2 0.761802 0.500028 0.509852
56 2 0.73879 0.505196 0.509574
55 1 0.737274 0.501881 0.510453
58 2 0.747738 0.501173 0.508277
57 1 0.747176 0.500057 0.5118
61 1 0.762345 0.503269 0.50807
50 2 0.719477 0.512673 0.507797
52 2 0.727082 0.511113 0.508816
51 1 0.726175 0.511796 0.512323
49 1 0.717492 0.515322 0.509554
53 1 0.731705 0.505435 0.517903
54 2 0.731551 0.507659 0.520862
ITEM: TIMESTEP
120000
ITEM: NUMBER OF ATOMS
72
ITEM: BOX BOUNDS pp pp pp
0.0000000000000000e+00 5.2900000000000000e+02
0.0000000000000000e+00 5.2900000000000000e+02
0.0000000000000000e+00 5.2900000000000000e+02
ITEM: ATOMS id type xs ys zs
26 2 0.631037 0.490705 0.491644
23 1 0.621435 0.49406 0.488314
24 2 0.619615 0.497089 0.489427
25 1 0.630684 0.494297 0.492057
27 1 0.639121 0.498162 0.487936
28 2 0.640255 0.4947 0.488196
31 1 0.658345 0.499934 0.487521
1 1 0.589378 0.50471 0.488885
29 1 0.648749 0.500047 0.489323
30 2 0.648032 0.503571 0.49
32 2 0.658147 0.503399 0.486314
34 2 0.669052 0.501747 0.486337
33 1 0.668005 0.502093 0.489876
35 1 0.676726 0.506786 0.491741
36 2 0.678273 0.503378 0.491626
2 2 0.590259 0.508203 0.489515
19 1 0.627048 0.483207 0.499512
6 2 0.583008 0.488892 0.498497
8 2 0.591769 0.489029 0.493329
7 1 0.59017 0.485953 0.494633
10 2 0.600173 0.486027 0.499185
22 2 0.617473 0.487321 0.499099
21 1 0.619595 0.489308 0.496883
3 1 0.583076 0.498198 0.492908
4 2 0.585404 0.497839 0.495789
40 2 0.678353 0.503033 0.496381
39 1 0.675024 0.504384 0.49554
64 2 0.751438 0.505307 0.499255
63 1 0.754785 0.504315 0.498153
37 1 0.678375 0.512967 0.499511
41 1 0.68419 0.507928 0.498195
43 1 0.691532 0.513684 0.494613
44 2 0.690554 0.516043 0.497331
72 2 0.769628 0.518779 0.49533
71 1 0.77127 0.516404 0.49312
11 1 0.604844 0.477322 0.50307
9 1 0.597656 0.483778 0.500614
12 2 0.606912 0.479433 0.500878
13 1 0.611109 0.484626 0.505907
5 1 0.58439 0.491751 0.500385
17 1 0.618364 0.486872 0.503019
18 2 0.619436 0.490237 0.504291
20 2 0.628863 0.485948 0.501227
42 2 0.684584 0.505312 0.500884
60 2 0.748876 0.504329 0.507274
59 1 0.747086 0.502362 0.504779
65 1 0.764261 0.505001 0.501375
68 2 0.774305 0.503999 0.505445
67 1 0.774234 0.505452 0.502008
38 2 0.679801 0.510283 0.501619
45 1 0.695818 0.514436 0.503567
47 1 0.705462 0.512284 0.505057
66 2 0.763655 0.508195 0.503315
69 1 0.777925 0.514415 0.50046
46 2 0.698214 0.516861 0.502317
48 2 0.705881 0.515863 0.505917
70 2 0.775043 0.515842 0.502203
15 1 0.619223 0.482996 0.511925
16 2 0.616836 0.483225 0.514759
14 2 0.609081 0.485193 0.50893
57 1 0.740755 0.498098 0.511297
56 2 0.730001 0.501214 0.5102
55 1 0.732277 0.503361 0.512092
58 2 0.742676 0.50084 0.509816
62 2 0.756333 0.502041 0.510962
61 1 0.756706 0.504002 0.507898
51 1 0.722686 0.513619 0.513702
49 1 0.713371 0.515364 0.510794
50 2 0.715743 0.514684 0.50808
53 1 0.725486 0.505424 0.518904
54 2 0.723323 0.506973 0.521493
52 2 0.72233 0.516459 0.516073
ITEM: TIMESTEP
135000
ITEM: NUMBER OF ATOMS
72
ITEM: BOX BOUNDS pp pp pp
0.0000000000000000e+00 5.2900000000000000e+02
0.0000000000000000e+00 5.2900000000000000e+02
0.0000000000000000e+00 5.2900000000000000e+02
ITEM: ATOMS id type xs ys zs
32 2 0.658041 0.499338 0.482085
8 2 0.597502 0.48572 0.491162
24 2 0.620075 0.491768 0.487181
26 2 0.632377 0.490105 0.489749
3 1 0.594527 0.497574 0.491859
23 1 0.622503 0.493591 0.489294
25 1 0.632716 0.493857 0.489919
27 1 0.64169 0.496682 0.486838
28 2 0.643178 0.496383 0.490269
31 1 0.659022 0.500001 0.48562
2 2 0.603669 0.502975 0.486767
1 1 0.601471 0.504133 0.489564
29 1 0.649938 0.501704 0.488947
30 2 0.651606 0.500142 0.485982
34 2 0.669113 0.500881 0.487034
33 1 0.66781 0.504016 0.488496
35 1 0.677315 0.506036 0.490942
36 2 0.676916 0.509136 0.489047
10 2 0.60847 0.484573 0.498909
19 1 0.631645 0.482239 0.498118
20 2 0.630758 0.478859 0.49931
6 2 0.589762 0.491837 0.500054
5 1 0.593196 0.490699 0.499245
7 1 0.59946 0.484832 0.494168
21 1 0.622993 0.486851 0.49669
22 2 0.623872 0.489154 0.499514
4 2 0.595376 0.498015 0.495409
39 1 0.674219 0.504742 0.498486
63 1 0.746685 0.506963 0.499201
66 2 0.756917 0.503041 0.499415
37 1 0.679777 0.512831 0.497501
41 1 0.68226 0.510562 0.498063
42 2 0.684089 0.507985 0.499833
43 1 0.690747 0.514393 0.494513
72 2 0.760315 0.512636 0.494115
68 2 0.765683 0.507912 0.499378
44 2 0.689322 0.517697 0.493715
71 1 0.760082 0.516397 0.494135
69 1 0.768151 0.516705 0.49989
12 2 0.60973 0.473468 0.501462
11 1 0.612468 0.475946 0.501901
9 1 0.60581 0.483427 0.501275
13 1 0.618092 0.482589 0.50641
18 2 0.621785 0.484654 0.503663
17 1 0.624863 0.486484 0.504353
40 2 0.67545 0.504644 0.501984
60 2 0.741739 0.502038 0.504546
65 1 0.756138 0.505225 0.502196
67 1 0.765762 0.507634 0.503038
38 2 0.678569 0.510852 0.500387
46 2 0.694984 0.514373 0.504081
47 1 0.701845 0.512827 0.505892
64 2 0.745316 0.509831 0.501175
45 1 0.693093 0.517614 0.503691
70 2 0.767226 0.518119 0.503231
14 2 0.620065 0.479775 0.507827
15 1 0.62558 0.480754 0.512802
57 1 0.734057 0.497586 0.50968
58 2 0.736279 0.499703 0.511813
55 1 0.726329 0.502993 0.513117
59 1 0.7416 0.503813 0.507848
62 2 0.751899 0.505244 0.511133
61 1 0.751821 0.504786 0.507417
48 2 0.702931 0.515267 0.508455
52 2 0.71896 0.512803 0.515356
49 1 0.708861 0.515318 0.512148
50 2 0.711179 0.51561 0.509254
16 2 0.623568 0.480814 0.515891
53 1 0.719032 0.506621 0.518995
54 2 0.716386 0.507291 0.521463
56 2 0.728242 0.502706 0.51632
51 1 0.718184 0.516249 0.516403
ITEM: TIMESTEP
150000
ITEM: NUMBER OF ATOMS
72
ITEM: BOX BOUNDS pp pp pp
0.0000000000000000e+00 5.2900000000000000e+02
0.0000000000000000e+00 5.2900000000000000e+02
0.0000000000000000e+00 5.2900000000000000e+02
ITEM: ATOMS id type xs ys zs
32 2 0.659322 0.496662 0.483166
31 1 0.659825 0.500282 0.482803
24 2 0.626755 0.49075 0.487969
23 1 0.624278 0.492397 0.490175
26 2 0.634614 0.490184 0.488272
3 1 0.60653 0.496448 0.491676
25 1 0.633773 0.493549 0.487201
27 1 0.643704 0.495115 0.487105
28 2 0.64301 0.498319 0.488706
2 2 0.611831 0.500151 0.489851
1 1 0.613944 0.502992 0.488887
30 2 0.651688 0.501472 0.490261
29 1 0.650914 0.502008 0.486723
34 2 0.668699 0.502164 0.489234
33 1 0.667642 0.504854 0.486914
35 1 0.677155 0.506627 0.488628
36 2 0.676531 0.505254 0.492055
44 2 0.687837 0.516752 0.491906
7 1 0.608092 0.4844 0.493542
8 2 0.60555 0.481706 0.493478
10 2 0.616332 0.48129 0.499253
20 2 0.63422 0.482118 0.49551
19 1 0.635268 0.479549 0.497969
5 1 0.600929 0.490365 0.497483
21 1 0.627081 0.485563 0.497003
22 2 0.628841 0.488278 0.495309
4 2 0.60557 0.498063 0.494891
38 2 0.677816 0.511604 0.498215
37 1 0.681022 0.511742 0.496378
41 1 0.680132 0.513052 0.497545
42 2 0.683164 0.511037 0.498553
71 1 0.749755 0.514672 0.495831
43 1 0.68963 0.515227 0.494763
72 2 0.749413 0.5166 0.492765
69 1 0.757997 0.519212 0.499011
11 1 0.618492 0.474222 0.50059
12 2 0.621035 0.475259 0.503047
9 1 0.61404 0.482975 0.501558
13 1 0.625211 0.478596 0.506739
14 2 0.627384 0.479585 0.503933
18 2 0.633534 0.483098 0.503882
17 1 0.630175 0.483917 0.50533
6 2 0.601695 0.49241 0.500462
39 1 0.674269 0.506261 0.501752
61 1 0.746414 0.505514 0.507327
65 1 0.74795 0.50443 0.501053
66 2 0.748685 0.506088 0.504358
40 2 0.673682 0.509206 0.5039
47 1 0.698385 0.513041 0.506787
63 1 0.739259 0.509465 0.501204
64 2 0.739715 0.512825 0.502586
68 2 0.756265 0.509971 0.505261
67 1 0.756602 0.509626 0.501567
46 2 0.688111 0.519428 0.504611
45 1 0.691614 0.519484 0.50366
70 2 0.759904 0.519712 0.502088
15 1 0.632503 0.47936 0.513666
57 1 0.727217 0.49935 0.508912
58 2 0.72885 0.496911 0.511107
56 2 0.721945 0.503754 0.51309
60 2 0.736449 0.504501 0.511986
59 1 0.736569 0.503479 0.508479
48 2 0.697188 0.513761 0.510214
62 2 0.746017 0.507918 0.510051
49 1 0.704841 0.515907 0.514204
50 2 0.707347 0.516957 0.511687
16 2 0.629664 0.478452 0.515878
53 1 0.713104 0.507012 0.518312
54 2 0.709757 0.507683 0.519825
55 1 0.721707 0.502029 0.516322
52 2 0.712695 0.520592 0.51858
51 1 0.713759 0.517097 0.517895
ITEM: TIMESTEP
165000
ITEM: NUMBER OF ATOMS
72
ITEM: BOX BOUNDS pp pp pp
0.0000000000000000e+00 5.2900000000000000e+02
0.0000000000000000e+00 5.2900000000000000e+02
0.0000000000000000e+00 5.2900000000000000e+02
ITEM: ATOMS id type xs ys zs
25 1 0.635285 0.493293 0.484866
32 2 0.662166 0.499158 0.483537
31 1 0.660223 0.500099 0.480498
23 1 0.627306 0.490988 0.49031
26 2 0.637154 0.490709 0.486876
3 1 0.618162 0.494865 0.492341
24 2 0.630158 0.493334 0.49048
27 1 0.644417 0.494713 0.487828
28 2 0.644746 0.497155 0.484997
1 1 0.625198 0.500682 0.488444
2 2 0.624703 0.503558 0.490751
30 2 0.649149 0.503514 0.484935
29 1 0.651811 0.501155 0.486081
33 1 0.667231 0.504815 0.485561
34 2 0.665054 0.504989 0.488549
35 1 0.677001 0.506428 0.488136
36 2 0.678434 0.505094 0.485043
44 2 0.687441 0.51482 0.491764
12 2 0.625431 0.473259 0.497025
20 2 0.642437 0.476791 0.497313
7 1 0.615725 0.483398 0.493535
8 2 0.616273 0.483145 0.497184
21 1 0.632034 0.485132 0.497047
22 2 0.631503 0.484424 0.493405
19 1 0.63891 0.477596 0.496568
5 1 0.609631 0.490948 0.495429
6 2 0.611691 0.488988 0.497806
4 2 0.616871 0.498212 0.493144
66 2 0.738257 0.504151 0.498949
38 2 0.678417 0.512477 0.496641
37 1 0.681306 0.510169 0.496507
42 2 0.6817 0.513738 0.497353
72 2 0.739561 0.514973 0.500103
71 1 0.740162 0.514643 0.496408
68 2 0.748475 0.511147 0.498833
41 1 0.678441 0.515319 0.497282
43 1 0.688059 0.516321 0.495106
69 1 0.747423 0.520928 0.498154
70 2 0.751139 0.521175 0.498533
11 1 0.625871 0.472978 0.500698
13 1 0.633786 0.475216 0.506117
10 2 0.622464 0.478678 0.500994
9 1 0.622231 0.482401 0.501266
14 2 0.63183 0.478042 0.507529
17 1 0.636378 0.481066 0.505281
18 2 0.635293 0.484374 0.506398
61 1 0.740015 0.506355 0.507301
65 1 0.739758 0.505391 0.502032
39 1 0.675254 0.509191 0.504412
40 2 0.67329 0.512134 0.503303
63 1 0.732158 0.511326 0.503668
64 2 0.734286 0.514398 0.503702
67 1 0.747338 0.511796 0.502275
45 1 0.688943 0.520616 0.504019
46 2 0.690667 0.523592 0.502487
15 1 0.638601 0.47785 0.514449
58 2 0.719333 0.498873 0.507547
57 1 0.721824 0.501056 0.509262
60 2 0.732066 0.502723 0.507279
59 1 0.731254 0.503448 0.510859
48 2 0.692704 0.513196 0.510911
47 1 0.694931 0.513466 0.50796
62 2 0.739662 0.509848 0.508604
50 2 0.701676 0.519138 0.513871
16 2 0.636329 0.475867 0.51657
56 2 0.714534 0.499838 0.519042
55 1 0.716379 0.502586 0.517342
54 2 0.70503 0.508622 0.518359
53 1 0.708618 0.508682 0.517591
49 1 0.6996 0.516819 0.515836
52 2 0.709772 0.514879 0.519078
51 1 0.708793 0.518372 0.519745
ITEM: TIMESTEP
180000
ITEM: NUMBER OF ATOMS
72
ITEM: BOX BOUNDS pp pp pp
0.0000000000000000e+00 5.2900000000000000e+02
0.0000000000000000e+00 5.2900000000000000e+02
0.0000000000000000e+00 5.2900000000000000e+02
ITEM: ATOMS id type xs ys zs
25 1 0.637363 0.492622 0.482244
26 2 0.640211 0.493215 0.484428
30 2 0.653963 0.498854 0.482385
31 1 0.660758 0.499976 0.479035
29 1 0.652518 0.501434 0.484557
32 2 0.66214 0.503222 0.480068
34 2 0.665201 0.507693 0.485143
6 2 0.620431 0.489057 0.491489
23 1 0.632587 0.487835 0.48955
1 1 0.63577 0.498817 0.489247
2 2 0.638334 0.500341 0.487064
28 2 0.647677 0.493258 0.485378
27 1 0.645556 0.495194 0.487633
33 1 0.667322 0.504667 0.484943
35 1 0.676783 0.506088 0.487249