# Model for poly(2-vinyl) chain

72 atoms
71 bonds
35 angles


2 atom types
2 bond types
1 angle types

0 529.0 xlo xhi
0 529.0 ylo yhi
0 529.0 zlo zhi


Masses

1 88.133
2 17.007


Atoms

1 1 1 264.5 264.5 264.5
2 1 2 264.5 266.4573 264.5
3 1 1 269.79 264.5 264.5
4 1 2 269.79 266.4573 264.5
5 1 1 275.08 264.5 264.5
6 1 2 275.08 266.4573 264.5
7 1 1 280.37 264.5 264.5
8 1 2 280.37 266.4573 264.5
9 1 1 285.66 264.5 264.5
10 1 2 285.66 266.4573 264.5
11 1 1 290.95 264.5 264.5
12 1 2 290.95 266.4573 264.5
13 1 1 296.24 264.5 264.5
14 1 2 296.24 266.4573 264.5
15 1 1 301.53000000000003 264.5 264.5
16 1 2 301.53000000000003 266.4573 264.5
17 1 1 306.82 264.5 264.5
18 1 2 306.82 266.4573 264.5
19 1 1 312.11 264.5 264.5
20 1 2 312.11 266.4573 264.5
21 1 1 317.4 264.5 264.5
22 1 2 317.4 266.4573 264.5
23 1 1 322.69 264.5 264.5
24 1 2 322.69 266.4573 264.5
25 1 1 327.98 264.5 264.5
26 1 2 327.98 266.4573 264.5
27 1 1 333.27 264.5 264.5
28 1 2 333.27 266.4573 264.5
29 1 1 338.56 264.5 264.5
30 1 2 338.56 266.4573 264.5
31 1 1 343.85 264.5 264.5
32 1 2 343.85 266.4573 264.5
33 1 1 349.14 264.5 264.5
34 1 2 349.14 266.4573 264.5
35 1 1 354.43 264.5 264.5
36 1 2 354.43 266.4573 264.5
37 1 1 359.72 264.5 264.5
38 1 2 359.72 266.4573 264.5
39 1 1 365.01 264.5 264.5
40 1 2 365.01 266.4573 264.5
41 1 1 370.3 264.5 264.5
42 1 2 370.3 266.4573 264.5
43 1 1 375.59 264.5 264.5
44 1 2 375.59 266.4573 264.5
45 1 1 380.88 264.5 264.5
46 1 2 380.88 266.4573 264.5
47 1 1 386.17 264.5 264.5
48 1 2 386.17 266.4573 264.5
49 1 1 391.46 264.5 264.5
50 1 2 391.46 266.4573 264.5
51 1 1 396.75 264.5 264.5
52 1 2 396.75 266.4573 264.5
53 1 1 402.04 264.5 264.5
54 1 2 402.04 266.4573 264.5
55 1 1 407.33 264.5 264.5
56 1 2 407.33 266.4573 264.5
57 1 1 412.62 264.5 264.5
58 1 2 412.62 266.4573 264.5
59 1 1 417.91 264.5 264.5
60 1 2 417.91 266.4573 264.5
61 1 1 423.2 264.5 264.5
62 1 2 423.2 266.4573 264.5
63 1 1 428.49 264.5 264.5
64 1 2 428.49 266.4573 264.5
65 1 1 433.78000000000003 264.5 264.5
66 1 2 433.78000000000003 266.4573 264.5
67 1 1 439.07 264.5 264.5
68 1 2 439.07 266.4573 264.5
69 1 1 444.36 264.5 264.5
70 1 2 444.36 266.4573 264.5
71 1 1 449.65 264.5 264.5
72 1 2 449.65 266.4573 264.5


Bonds

1 2 1 2
2 1 1 3
3 2 3 4
4 1 3 5
5 2 5 6
6 1 5 7
7 2 7 8
8 1 7 9
9 2 9 10
10 1 9 11
11 2 11 12
12 1 11 13
13 2 13 14
14 1 13 15
15 2 15 16
16 1 15 17
17 2 17 18
18 1 17 19
19 2 19 20
20 1 19 21
21 2 21 22
22 1 21 23
23 2 23 24
24 1 23 25
25 2 25 26
26 1 25 27
27 2 27 28
28 1 27 29
29 2 29 30
30 1 29 31
31 2 31 32
32 1 31 33
33 2 33 34
34 1 33 35
35 2 35 36
36 1 35 37
37 2 37 38
38 1 37 39
39 2 39 40
40 1 39 41
41 2 41 42
42 1 41 43
43 2 43 44
44 1 43 45
45 2 45 46
46 1 45 47
47 2 47 48
48 1 47 49
49 2 49 50
50 1 49 51
51 2 51 52
52 1 51 53
53 2 53 54
54 1 53 55
55 2 55 56
56 1 55 57
57 2 57 58
58 1 57 59
59 2 59 60
60 1 59 61
61 2 61 62
62 1 61 63
63 2 63 64
64 1 63 65
65 2 65 66
66 1 65 67
67 2 67 68
68 1 67 69
69 2 69 70
70 1 69 71
71 2 71 72


Angles

1 1 1 3 4
2 1 3 5 6
3 1 5 7 8
4 1 7 9 10
5 1 9 11 12
6 1 11 13 14
7 1 13 15 16
8 1 15 17 18
9 1 17 19 20
10 1 19 21 22
11 1 21 23 24
12 1 23 25 26
13 1 25 27 28
14 1 27 29 30
15 1 29 31 32
16 1 31 33 34
17 1 33 35 36
18 1 35 37 38
19 1 37 39 40
20 1 39 41 42
21 1 41 43 44
22 1 43 45 46
23 1 45 47 48
24 1 47 49 50
25 1 49 51 52
26 1 51 53 54
27 1 53 55 56
28 1 55 57 58
29 1 57 59 60
30 1 59 61 62
31 1 61 63 64
32 1 63 65 66
33 1 65 67 68
34 1 67 69 70
35 1 69 71 72

