# Model for poly(2-vinyl) chain

72 atoms
71 bonds
35 angles


2 atom types
2 bond types
1 angle types

0 195.73 xlo xhi
0 7.0886 ylo yhi
0 5.29 zlo zhi


Masses

1 88.133
2 17.007


Atoms

0 0 1 0.0 0.0 0.0
1 0 2 0.0 1.9573 0.0
2 0 1 10.58 0.0 0.0
3 0 2 10.58 1.9573 0.0
4 0 1 21.16 0.0 0.0
5 0 2 21.16 1.9573 0.0
6 0 1 31.740000000000002 0.0 0.0
7 0 2 31.740000000000002 1.9573 0.0
8 0 1 42.32 0.0 0.0
9 0 2 42.32 1.9573 0.0
10 0 1 52.9 0.0 0.0
11 0 2 52.9 1.9573 0.0
12 0 1 63.480000000000004 0.0 0.0
13 0 2 63.480000000000004 1.9573 0.0
14 0 1 74.06 0.0 0.0
15 0 2 74.06 1.9573 0.0
16 0 1 84.64 0.0 0.0
17 0 2 84.64 1.9573 0.0
18 0 1 95.22 0.0 0.0
19 0 2 95.22 1.9573 0.0
20 0 1 105.8 0.0 0.0
21 0 2 105.8 1.9573 0.0
22 0 1 116.38 0.0 0.0
23 0 2 116.38 1.9573 0.0
24 0 1 126.96000000000001 0.0 0.0
25 0 2 126.96000000000001 1.9573 0.0
26 0 1 137.54 0.0 0.0
27 0 2 137.54 1.9573 0.0
28 0 1 148.12 0.0 0.0
29 0 2 148.12 1.9573 0.0
30 0 1 158.7 0.0 0.0
31 0 2 158.7 1.9573 0.0
32 0 1 169.28 0.0 0.0
33 0 2 169.28 1.9573 0.0
34 0 1 179.86 0.0 0.0
35 0 2 179.86 1.9573 0.0
36 0 1 190.44 0.0 0.0
37 0 2 190.44 1.9573 0.0
38 0 1 201.02 0.0 0.0
39 0 2 201.02 1.9573 0.0
40 0 1 211.6 0.0 0.0
41 0 2 211.6 1.9573 0.0
42 0 1 222.18 0.0 0.0
43 0 2 222.18 1.9573 0.0
44 0 1 232.76 0.0 0.0
45 0 2 232.76 1.9573 0.0
46 0 1 243.34 0.0 0.0
47 0 2 243.34 1.9573 0.0
48 0 1 253.92000000000002 0.0 0.0
49 0 2 253.92000000000002 1.9573 0.0
50 0 1 264.5 0.0 0.0
51 0 2 264.5 1.9573 0.0
52 0 1 275.08 0.0 0.0
53 0 2 275.08 1.9573 0.0
54 0 1 285.66 0.0 0.0
55 0 2 285.66 1.9573 0.0
56 0 1 296.24 0.0 0.0
57 0 2 296.24 1.9573 0.0
58 0 1 306.82 0.0 0.0
59 0 2 306.82 1.9573 0.0
60 0 1 317.4 0.0 0.0
61 0 2 317.4 1.9573 0.0
62 0 1 327.98 0.0 0.0
63 0 2 327.98 1.9573 0.0
64 0 1 338.56 0.0 0.0
65 0 2 338.56 1.9573 0.0
66 0 1 349.14 0.0 0.0
67 0 2 349.14 1.9573 0.0
68 0 1 359.72 0.0 0.0
69 0 2 359.72 1.9573 0.0
70 0 1 370.3 0.0 0.0
71 0 2 370.3 1.9573 0.0


Bonds

0 2 0 1
1 1 0 2
2 2 2 3
3 1 2 4
4 2 4 5
5 1 4 6
6 2 6 7
7 1 6 8
8 2 8 9
9 1 8 10
10 2 10 11
11 1 10 12
12 2 12 13
13 1 12 14
14 2 14 15
15 1 14 16
16 2 16 17
17 1 16 18
18 2 18 19
19 1 18 20
20 2 20 21
21 1 20 22
22 2 22 23
23 1 22 24
24 2 24 25
25 1 24 26
26 2 26 27
27 1 26 28
28 2 28 29
29 1 28 30
30 2 30 31
31 1 30 32
32 2 32 33
33 1 32 34
34 2 34 35
35 1 34 36
36 2 36 37
37 1 36 38
38 2 38 39
39 1 38 40
40 2 40 41
41 1 40 42
42 2 42 43
43 1 42 44
44 2 44 45
45 1 44 46
46 2 46 47
47 1 46 48
48 2 48 49
49 1 48 50
50 2 50 51
51 1 50 52
52 2 52 53
53 1 52 54
54 2 54 55
55 1 54 56
56 2 56 57
57 1 56 58
58 2 58 59
59 1 58 60
60 2 60 61
61 1 60 62
62 2 62 63
63 1 62 64
64 2 64 65
65 1 64 66
66 2 66 67
67 1 66 68
68 2 68 69
69 1 68 70
70 2 70 71


Angles

0 1 0 2 3
1 1 2 4 5
2 1 4 6 7
3 1 6 8 9
4 1 8 10 11
5 1 10 12 13
6 1 12 14 15
7 1 14 16 17
8 1 16 18 19
9 1 18 20 21
10 1 20 22 23
11 1 22 24 25
12 1 24 26 27
13 1 26 28 29
14 1 28 30 31
15 1 30 32 33
16 1 32 34 35
17 1 34 36 37
18 1 36 38 39
19 1 38 40 41
20 1 40 42 43
21 1 42 44 45
22 1 44 46 47
23 1 46 48 49
24 1 48 50 51
25 1 50 52 53
26 1 52 54 55
27 1 54 56 57
28 1 56 58 59
29 1 58 60 61
30 1 60 62 63
31 1 62 64 65
32 1 64 66 67
33 1 66 68 69
34 1 68 70 71

