ITEM: TIMESTEP
0
ITEM: NUMBER OF ATOMS
1600
ITEM: BOX BOUNDS pp pp pp
-3.0000000000000000e+01 3.0000000000000000e+01
-3.0000000000000000e+01 3.0000000000000000e+01
-5.0000000000000000e-01 5.0000000000000000e-01
ITEM: ATOMS id type xs ys zs
180 1 0.0566431 0.0013333 0.5
410 1 0.116976 0.0222133 0.5
640 1 0.118285 0.01435 0.5
954 1 0.107575 0.00465606 0.5
225 1 0.139824 0.0213383 0.5
189 1 0.18778 0.0136371 0.5
1383 1 0.170465 0.00215665 0.5
688 1 0.20795 0.0221898 0.5
944 1 0.202536 0.0218169 0.5
1013 1 0.265425 0.00346125 0.5
411 1 0.334207 0.0210153 0.5
613 1 0.351104 0.000753444 0.5
719 1 0.37532 0.00666488 0.5
948 1 0.398288 0.0201408 0.5
1506 2 0.465402 0.00935346 0.5
616 1 0.542811 0.0190149 0.5
763 1 0.537871 0.00405874 0.5
1117 1 0.536324 0.0058227 0.5
1538 2 0.548581 0.00675591 0.5
236 1 0.585411 0.0101021 0.5
1060 1 0.66395 0.00500918 0.5
685 1 0.681979 0.0227819 0.5
857 1 0.683168 0.00229732 0.5
1440 1 0.714406 0.0225474 0.5
818 1 0.738205 0.0104439 0.5
192 1 0.77563 0.00679576 0.5
1462 1 0.768192 0.00260937 0.5
348 1 0.898793 0.0139937 0.5
391 1 0.883799 0.0032444 0.5
725 1 0.897068 0.0145408 0.5
528 1 0.974952 0.0160131 0.5
13 1 0.985246 0.0230318 0.5
632 1 0.98233 0.0178529 0.5
976 1 0.98935 0.00552702 0.5
1031 1 0.994527 0.0218632 0.5
1488 1 0.97751 0.0101256 0.5
183 1 0.00624963 0.0375297 0.5
261 1 0.0186848 0.0354223 0.5
380 1 0.0205292 0.0345439 0.5
824 1 0.0315957 0.0288824 0.5
1563 2 0.0913919 0.0239159 0.5
521 1 0.127807 0.046086 0.5
647 1 0.130901 0.0455712 0.5
1074 1 0.136731 0.0381945 0.5
1145 1 0.132745 0.0428536 0.5
1008 1 0.147024 0.0297014 0.5
531 1 0.212295 0.0379965 0.5
555 1 0.278993 0.0291593 0.5
860 1 0.320405 0.0428207 0.5
1090 1 0.330043 0.0366666 0.5
1442 1 0.313919 0.0410472 0.5
1052 1 0.336588 0.0423285 0.5
1118 1 0.365148 0.0451303 0.5
1420 1 0.364374 0.0289391 0.5
1177 1 0.478255 0.0319916 0.5
624 1 0.525795 0.0433726 0.5
69 1 0.575536 0.0276254 0.5
389 1 0.612426 0.0371844 0.5
424 1 0.602787 0.0388619 0.5
656 1 0.601418 0.0276379 0.5
738 1 0.603559 0.0242563 0.5
1055 1 0.636403 0.0293658 0.5
5 1 0.663297 0.0360944 0.5
927 1 0.663773 0.0307228 0.5
1386 1 0.720357 0.0329887 0.5
1 1 0.751475 0.0388878 0.5
324 1 0.750582 0.035151 0.5
1297 1 0.833048 0.0327963 0.5
806 1 0.888382 0.0421963 0.5
813 1 0.903911 0.0309182 0.5
1495 1 0.921106 0.0349428 0.5
914 1 0.999942 0.0283954 0.5
1436 1 0.994707 0.0433504 0.5
1001 1 0.0507557 0.0513024 0.5
637 1 0.0850282 0.0686363 0.5
542 1 0.0965112 0.0638186 0.5
1438 1 0.112337 0.0489259 0.5
1464 1 0.098356 0.0689979 0.5
869 1 0.214736 0.0664147 0.5
1452 1 0.251566 0.0679374 0.5
539 1 0.267333 0.0689179 0.5
696 1 0.276793 0.0644269 0.5
49 1 0.304104 0.0699488 0.5
1308 1 0.293155 0.0578261 0.5
452 1 0.326117 0.0481254 0.5
684 1 0.345813 0.0711361 0.5
358 1 0.360508 0.0620287 0.5
733 1 0.386866 0.0627038 0.5
1185 1 0.388294 0.0600033 0.5
1300 1 0.450471 0.0606033 0.5
543 1 0.468499 0.0660573 0.5
482 1 0.551678 0.0571595 0.5
1270 1 0.569885 0.0632982 0.5
1343 1 0.564352 0.0669429 0.5
554 1 0.57762 0.0635257 0.5
390 1 0.633608 0.0533375 0.5
932 1 0.690311 0.049144 0.5
957 1 0.6774 0.054236 0.5
1246 1 0.700902 0.0655556 0.5
115 1 0.724821 0.0598359 0.5
1550 2 0.767006 0.066585 0.5
1296 1 0.805323 0.067339 0.5
170 1 0.810618 0.0551767 0.5
1353 1 0.829657 0.0500739 0.5
550 1 0.873449 0.0622972 0.5
320 1 0.883148 0.071317 0.5
214 1 0.921525 0.0657694 0.5
552 1 0.92081 0.0590389 0.5
164 1 0.929676 0.0616049 0.5
1139 1 0.951631 0.0595053 0.5
147 1 0.968648 0.067674 0.5
599 1 0.975906 0.0492305 0.5
1567 2 0.999528 0.0694226 0.5
1598 2 0.983939 0.0584126 0.5
1592 2 0.0197584 0.0788896 0.5
204 1 0.0856241 0.0846123 0.5
787 1 0.0862786 0.083823 0.5
58 1 0.118289 0.0751374 0.5
1499 1 0.213309 0.0901838 0.5
1309 1 0.245082 0.0940022 0.5
1430 1 0.278698 0.0835749 0.5
1260 1 0.297917 0.0865293 0.5
1256 1 0.345695 0.0906342 0.5
96 1 0.377883 0.0862257 0.5
926 1 0.361997 0.0849896 0.5
952 1 0.395376 0.0847261 0.5
1064 1 0.387343 0.074378 0.5
1103 1 0.39478 0.0739155 0.5
1525 2 0.395019 0.0868628 0.5
138 1 0.417271 0.0719997 0.5
36 1 0.449579 0.080463 0.5
841 1 0.431908 0.0761515 0.5
1433 1 0.43179 0.0938574 0.5
1359 1 0.482006 0.0801737 0.5
811 1 0.562033 0.0900274 0.5
1051 1 0.551918 0.0861196 0.5
1384 1 0.560486 0.0878704 0.5
425 1 0.600886 0.0852988 0.5
814 1 0.601361 0.0755836 0.5
872 1 0.644439 0.0853965 0.5
1277 1 0.682994 0.0811207 0.5
670 1 0.774028 0.0934224 0.5
1127 1 0.773968 0.0727151 0.5
231 1 0.856314 0.0752545 0.5
690 1 0.976086 0.08558 0.5
1489 1 0.955738 0.0898979 0.5
518 1 0.986082 0.0727342 0.5
703 1 0.0188082 0.109535 0.5
1259 1 0.0839597 0.111071 0.5
1401 1 0.0922305 0.117696 0.5
728 1 0.161248 0.0991031 0.5
1562 2 0.181835 0.105776 0.5
140 1 0.193616 0.109983 0.5
260 1 0.251866 0.118716 0.5
899 1 0.240026 0.117719 0.5
28 1 0.308093 0.117891 0.5
862 1 0.297263 0.105335 0.5
501 1 0.330405 0.114828 0.5
1101 1 0.324158 0.118426 0.5
1098 1 0.433576 0.118072 0.5
1526 2 0.432564 0.0961882 0.5
1252 1 0.468799 0.0990075 0.5
235 1 0.504557 0.0962181 0.5
525 1 0.528239 0.106994 0.5
1208 1 0.531987 0.103397 0.5
1564 2 0.598864 0.103595 0.5
1576 2 0.596722 0.106718 0.5
341 1 0.649259 0.101717 0.5
701 1 0.720182 0.106263 0.5
777 1 0.725537 0.108062 0.5
63 1 0.74196 0.113512 0.5
491 1 0.781942 0.10065 0.5
1444 1 0.791761 0.118918 0.5
1087 1 0.827459 0.109807 0.5
1312 1 0.811871 0.111898 0.5
34 1 0.841501 0.108767 0.5
568 1 0.848047 0.117794 0.5
53 1 0.901655 0.108207 0.5
1009 1 0.88553 0.104111 0.5
1091 1 0.903202 0.112187 0.5
158 1 0.921289 0.096955 0.5
1130 1 0.93432 0.115363 0.5
1243 1 0.947647 0.105229 0.5
275 1 0.981978 0.1019 0.5
1494 1 0.977695 0.118454 0.5
146 1 0.0172621 0.1248 0.5
226 1 0.0125623 0.134061 0.5
1363 1 0.00833826 0.141206 0.5
556 1 0.0363614 0.125675 0.5
333 1 0.0906251 0.136703 0.5
978 1 0.107879 0.119345 0.5
982 1 0.161904 0.127021 0.5
1310 1 0.153634 0.12704 0.5
437 1 0.194867 0.136557 0.5
1147 1 0.237052 0.133931 0.5
606 1 0.254902 0.140359 0.5
1229 1 0.241097 0.121405 0.5
1373 1 0.324635 0.142505 0.5
1153 1 0.373721 0.135867 0.5
274 1 0.396807 0.129806 0.5
508 1 0.394724 0.123826 0.5
1016 1 0.395676 0.126395 0.5
1356 1 0.383182 0.138185 0.5
1234 1 0.424534 0.142143 0.5
1332 1 0.432744 0.134072 0.5
1487 1 0.452082 0.138338 0.5
1597 2 0.447321 0.13176 0.5
1099 1 0.47124 0.128232 0.5
770 1 0.487484 0.142421 0.5
892 1 0.485877 0.126733 0.5
1004 1 0.539129 0.137979 0.5
636 1 0.549779 0.138549 0.5
693 1 0.569532 0.119695 0.5
109 1 0.593511 0.136037 0.5
1588 2 0.608861 0.135226 0.5
117 1 0.624331 0.128763 0.5
1596 2 0.656283 0.140795 0.5
1314 1 0.727562 0.13627 0.5
885 1 0.748863 0.132495 0.5
1079 1 0.766356 0.141944 0.5
1395 1 0.766058 0.132575 0.5
432 1 0.825735 0.128738 0.5
652 1 0.829365 0.129628 0.5
742 1 0.88214 0.126742 0.5
965 1 0.905584 0.142485 0.5
1375 1 0.928073 0.131225 0.5
774 1 0.943365 0.13958 0.5
852 1 0.935808 0.120808 0.5
1065 1 0.929323 0.132418 0.5
30 1 0.962464 0.138984 0.5
89 1 0.00607792 0.151579 0.5
178 1 0.020239 0.157628 0.5
483 1 0.00595972 0.164965 0.5
209 1 0.0435628 0.159474 0.5
1034 1 0.036423 0.160705 0.5
1509 2 0.0741451 0.15705 0.5
1367 1 0.111331 0.143577 0.5
1496 1 0.109844 0.151116 0.5
74 1 0.121685 0.16595 0.5
1349 1 0.156372 0.150458 0.5
513 1 0.176365 0.166168 0.5
989 1 0.186003 0.151483 0.5
1107 1 0.212719 0.163006 0.5
1431 1 0.210397 0.144861 0.5
669 1 0.226285 0.166133 0.5
1354 1 0.2671 0.149723 0.5
642 1 0.286497 0.153949 0.5
820 1 0.319162 0.161089 0.5
1368 1 0.327135 0.156115 0.5
1374 1 0.366107 0.1573 0.5
874 1 0.39538 0.159335 0.5
1529 2 0.399247 0.151329 0.5
765 1 0.469457 0.15726 0.5
694 1 0.478203 0.162552 0.5
1415 1 0.486057 0.155992 0.5
52 1 0.522173 0.164245 0.5
328 1 0.521815 0.145196 0.5
753 1 0.506405 0.15014 0.5
1201 1 0.50105 0.147997 0.5
1131 1 0.528419 0.143915 0.5
1219 1 0.567927 0.152069 0.5
363 1 0.598153 0.16079 0.5
584 1 0.636827 0.149812 0.5
648 1 0.651583 0.152678 0.5
247 1 0.669433 0.154559 0.5
1026 1 0.693352 0.164516 0.5
591 1 0.736488 0.151991 0.5
1164 1 0.727861 0.166254 0.5
1454 1 0.803544 0.165866 0.5
1558 2 0.799974 0.164262 0.5
1212 1 0.88476 0.154272 0.5
1278 1 0.898683 0.166423 0.5
173 1 0.910285 0.158761 0.5
181 1 0.914212 0.160748 0.5
1595 2 0.916473 0.157685 0.5
682 1 0.931168 0.148891 0.5
1566 2 0.989894 0.150671 0.5
519 1 0.00477031 0.174657 0.5
895 1 0.00489014 0.188499 0.5
997 1 0.0337469 0.18386 0.5
641 1 0.0676019 0.184971 0.5
712 1 0.0905682 0.179562 0.5
1389 1 0.136382 0.171767 0.5
1593 2 0.148044 0.175414 0.5
1393 1 0.189337 0.186965 0.5
1465 1 0.181067 0.188189 0.5
433 1 0.261568 0.178834 0.5
1022 1 0.269006 0.182089 0.5
1435 1 0.319937 0.180834 0.5
1573 2 0.312439 0.169855 0.5
1157 1 0.357421 0.177004 0.5
723 1 0.388539 0.17449 0.5
269 1 0.412339 0.177891 0.5
1279 1 0.440541 0.173265 0.5
1521 2 0.437447 0.169671 0.5
1149 1 0.49409 0.170832 0.5
85 1 0.60464 0.181691 0.5
971 1 0.599761 0.182966 0.5
1533 2 0.620586 0.181455 0.5
335 1 0.663305 0.170332 0.5
588 1 0.656642 0.1739 0.5
26 1 0.673719 0.189777 0.5
1114 1 0.748389 0.176763 0.5
822 1 0.818242 0.188698 0.5
2 1 0.85638 0.173936 0.5
1193 1 0.851025 0.182108 0.5
904 1 0.920817 0.173797 0.5
492 1 0.998047 0.177491 0.5
657 1 0.987277 0.170365 0.5
1175 1 0.9871 0.186265 0.5
1472 1 0.00405788 0.200743 0.5
629 1 0.0269657 0.211692 0.5
1271 1 0.0948538 0.208189 0.5
208 1 0.116332 0.198861 0.5
1338 1 0.105266 0.200539 0.5
1174 1 0.153817 0.206936 0.5
836 1 0.238068 0.20091 0.5
108 1 0.268591 0.210696 0.5
131 1 0.294413 0.205881 0.5
831 1 0.302028 0.192141 0.5
1313 1 0.322259 0.206038 0.5
114 1 0.35415 0.194248 0.5
1358 1 0.370691 0.211615 0.5
1382 1 0.404189 0.196722 0.5
587 1 0.513786 0.19857 0.5
1180 1 0.500517 0.19744 0.5
1218 1 0.617672 0.205046 0.5
1293 1 0.608211 0.204402 0.5
238 1 0.685083 0.193038 0.5
778 1 0.685917 0.200815 0.5
1154 1 0.679015 0.202017 0.5
12 1 0.736134 0.202948 0.5
1475 1 0.722152 0.20113 0.5
65 1 0.744464 0.209228 0.5
220 1 0.741489 0.205428 0.5
951 1 0.738455 0.208853 0.5
1171 1 0.76993 0.206769 0.5
245 1 0.82818 0.214234 0.5
194 1 0.854001 0.194251 0.5
91 1 0.879526 0.198138 0.5
998 1 0.876552 0.213958 0.5
676 1 0.881729 0.212239 0.5
270 1 0.923079 0.191849 0.5
808 1 0.930695 0.192979 0.5
1378 1 0.933849 0.208241 0.5
736 1 0.999536 0.203183 0.5
355 1 0.00655775 0.216121 0.5
923 1 0.0186369 0.230425 0.5
1400 1 0.00102451 0.218897 0.5
1502 2 0.000549172 0.229935 0.5
700 1 0.0569536 0.219855 0.5
1350 1 0.0581436 0.219633 0.5
547 1 0.142811 0.219718 0.5
762 1 0.13341 0.215669 0.5
239 1 0.147571 0.230929 0.5
546 1 0.152747 0.219755 0.5
67 1 0.176845 0.227595 0.5
1251 1 0.242115 0.232305 0.5
1003 1 0.321428 0.232564 0.5
1584 2 0.344156 0.236544 0.5
745 1 0.36867 0.235703 0.5
840 1 0.364802 0.223439 0.5
882 1 0.366408 0.225633 0.5
1276 1 0.384437 0.232199 0.5
257 1 0.418291 0.222737 0.5
1519 2 0.418351 0.224277 0.5
43 1 0.459107 0.216227 0.5
1094 1 0.475828 0.237629 0.5
1156 1 0.462856 0.226874 0.5
704 1 0.490345 0.22048 0.5
123 1 0.582568 0.218801 0.5
24 1 0.598991 0.233682 0.5
1517 2 0.612913 0.223825 0.5
392 1 0.625943 0.228145 0.5
946 1 0.61922 0.23274 0.5
1267 1 0.62047 0.232673 0.5
1292 1 0.639449 0.224958 0.5
228 1 0.650635 0.219575 0.5
924 1 0.693653 0.220499 0.5
191 1 0.726139 0.221844 0.5
1518 2 0.7356 0.226784 0.5
697 1 0.783497 0.228937 0.5
1168 1 0.765469 0.229439 0.5
635 1 0.830382 0.228116 0.5
744 1 0.833476 0.23567 0.5
627 1 0.893213 0.223497 0.5
1547 2 0.94105 0.223632 0.5
791 1 0.963302 0.220149 0.5
1432 1 0.0281585 0.260338 0.5
686 1 0.0496374 0.256183 0.5
772 1 0.0565979 0.241455 0.5
1577 2 0.0527904 0.247652 0.5
356 1 0.113479 0.242783 0.5
395 1 0.175001 0.247358 0.5
730 1 0.175359 0.261289 0.5
535 1 0.225338 0.260227 0.5
776 1 0.231466 0.242857 0.5
448 1 0.243544 0.248858 0.5
1183 1 0.256158 0.247913 0.5
823 1 0.273294 0.249254 0.5
867 1 0.267047 0.256022 0.5
457 1 0.291203 0.242486 0.5
154 1 0.381582 0.24869 0.5
400 1 0.452862 0.25927 0.5
203 1 0.507601 0.249876 0.5
315 1 0.50409 0.243224 0.5
409 1 0.525094 0.253166 0.5
413 1 0.546989 0.239211 0.5
577 1 0.540503 0.24193 0.5
850 1 0.54931 0.251494 0.5
1059 1 0.602501 0.240077 0.5
317 1 0.662001 0.244782 0.5
340 1 0.657538 0.249068 0.5
870 1 0.658074 0.255224 0.5
497 1 0.670331 0.259984 0.5
1478 1 0.726736 0.2492 0.5
970 1 0.798968 0.253685 0.5
81 1 0.827706 0.257994 0.5
1537 2 0.810331 0.241302 0.5
475 1 0.841272 0.258929 0.5
835 1 0.849185 0.253455 0.5
768 1 0.866261 0.246439 0.5
142 1 0.90327 0.25209 0.5
431 1 0.902139 0.252945 0.5
649 1 0.885538 0.239015 0.5
1553 2 0.91874 0.255981 0.5
57 1 0.990674 0.253492 0.5
1333 1 0.993648 0.245514 0.5
990 1 0.0120352 0.275926 0.5
202 1 0.0940247 0.273394 0.5
398 1 0.12199 0.282298 0.5
1424 1 0.13371 0.270877 0.5
679 1 0.14567 0.278454 0.5
748 1 0.186308 0.275345 0.5
1161 1 0.175062 0.270202 0.5
1419 1 0.219091 0.265578 0.5
1123 1 0.242059 0.28281 0.5
495 1 0.278532 0.284059 0.5
1086 1 0.277579 0.274305 0.5
72 1 0.287873 0.281676 0.5
1390 1 0.334103 0.269983 0.5
137 1 0.412225 0.27062 0.5
564 1 0.413356 0.266799 0.5
975 1 0.574242 0.281573 0.5
94 1 0.610239 0.284155 0.5
523 1 0.616247 0.269684 0.5
586 1 0.60066 0.2849 0.5
1178 1 0.613629 0.266995 0.5
658 1 0.624637 0.277128 0.5
1405 1 0.638263 0.281459 0.5
668 1 0.667536 0.270479 0.5
755 1 0.706626 0.263585 0.5
420 1 0.744111 0.267222 0.5
628 1 0.767851 0.2661 0.5
1195 1 0.766364 0.285378 0.5
875 1 0.846449 0.274897 0.5
1360 1 0.838119 0.270653 0.5
196 1 0.94843 0.262358 0.5
1224 1 0.991687 0.276534 0.5
1304 1 0.0225681 0.301488 0.5
639 1 0.093133 0.286319 0.5
1070 1 0.0735579 0.287552 0.5
1306 1 0.0906346 0.295892 0.5
488 1 0.122646 0.30588 0.5
512 1 0.142815 0.293849 0.5
1425 1 0.127584 0.297271 0.5
589 1 0.166437 0.300306 0.5
1222 1 0.158642 0.299861 0.5
323 1 0.203683 0.306374 0.5
160 1 0.230755 0.295716 0.5
337 1 0.224626 0.2919 0.5
1411 1 0.243249 0.293647 0.5
1020 1 0.279366 0.30608 0.5
195 1 0.327739 0.30157 0.5
1235 1 0.324883 0.308583 0.5
51 1 0.378253 0.299087 0.5
127 1 0.367126 0.290803 0.5
240 1 0.394675 0.30471 0.5
223 1 0.412227 0.306449 0.5
1085 1 0.416391 0.289366 0.5
1318 1 0.42139 0.294389 0.5
715 1 0.443643 0.303404 0.5
1423 1 0.447272 0.299113 0.5
351 1 0.457208 0.290463 0.5
417 1 0.455244 0.289975 0.5
1582 2 0.455424 0.30452 0.5
403 1 0.522717 0.308419 0.5
572 1 0.638918 0.292206 0.5
1329 1 0.638323 0.298973 0.5
1179 1 0.671762 0.297887 0.5
832 1 0.699846 0.306452 0.5
1036 1 0.794924 0.28926 0.5
1047 1 0.793972 0.294619 0.5
590 1 0.832944 0.294669 0.5
1140 1 0.818248 0.2939 0.5
1369 1 0.923978 0.299293 0.5
788 1 0.963902 0.306265 0.5
878 1 0.0429186 0.332412 0.5
1129 1 0.0332199 0.326898 0.5
213 1 0.130858 0.333168 0.5
481 1 0.137461 0.312008 0.5
360 1 0.189761 0.313774 0.5
1448 1 0.177862 0.327061 0.5
465 1 0.26122 0.324679 0.5
1486 1 0.267884 0.330948 0.5
928 1 0.294718 0.324546 0.5
88 1 0.314412 0.318043 0.5
145 1 0.318041 0.32323 0.5
66 1 0.351837 0.330916 0.5
406 1 0.369151 0.320436 0.5
966 1 0.380575 0.31904 0.5
73 1 0.398306 0.331067 0.5
184 1 0.405862 0.330242 0.5
440 1 0.4108 0.31905 0.5
1524 2 0.475714 0.330859 0.5
1040 1 0.519684 0.330455 0.5
401 1 0.566986 0.332246 0.5
509 1 0.606731 0.32558 0.5
897 1 0.610837 0.331507 0.5
271 1 0.660459 0.329968 0.5
332 1 0.658019 0.328323 0.5
450 1 0.711509 0.32831 0.5
1366 1 0.721682 0.316885 0.5
974 1 0.877213 0.325055 0.5
1330 1 0.883103 0.319931 0.5
507 1 0.94653 0.327398 0.5
1162 1 0.940163 0.313272 0.5
1290 1 0.935999 0.327053 0.5
1257 1 0.977171 0.313648 0.5
252 1 0.0511297 0.336793 0.5
382 1 0.0650524 0.336437 0.5
1453 1 0.101585 0.338185 0.5
253 1 0.163999 0.335469 0.5
1336 1 0.156979 0.344617 0.5
1077 1 0.278951 0.335399 0.5
890 1 0.286865 0.336514 0.5
296 1 0.350113 0.352908 0.5
1412 1 0.387954 0.337511 0.5
1295 1 0.41812 0.339901 0.5
653 1 0.445431 0.353132 0.5
172 1 0.540093 0.349059 0.5
800 1 0.614229 0.348345 0.5
1571 2 0.598938 0.350304 0.5
1005 1 0.626604 0.335853 0.5
1466 1 0.639397 0.349524 0.5
529 1 0.651892 0.342077 0.5
578 1 0.65207 0.33755 0.5
980 1 0.654093 0.337356 0.5
902 1 0.698479 0.337263 0.5
56 1 0.765535 0.339954 0.5
157 1 0.779875 0.354788 0.5
197 1 0.775173 0.34028 0.5
327 1 0.790465 0.350264 0.5
1263 1 0.798974 0.353143 0.5
650 1 0.820453 0.352502 0.5
1365 1 0.812718 0.352697 0.5
1210 1 0.856747 0.351806 0.5
106 1 0.901134 0.352879 0.5
163 1 0.887508 0.354465 0.5
79 1 0.941116 0.341629 0.5
618 1 0.95141 0.353195 0.5
1281 1 0.954682 0.338518 0.5
98 1 0.998057 0.351205 0.5
1371 1 0.979434 0.345177 0.5
919 1 0.0053174 0.369498 0.5
553 1 0.0688618 0.35969 0.5
1581 2 0.0567249 0.375988 0.5
909 1 0.0924233 0.358839 0.5
651 1 0.103134 0.370747 0.5
1429 1 0.124851 0.368137 0.5
557 1 0.184469 0.364904 0.5
706 1 0.168701 0.364698 0.5
854 1 0.191668 0.362944 0.5
1159 1 0.19857 0.371955 0.5
1599 2 0.195417 0.37399 0.5
1337 1 0.214516 0.362468 0.5
1413 1 0.235399 0.358866 0.5
1346 1 0.278894 0.37472 0.5
171 1 0.292578 0.3645 0.5
517 1 0.309417 0.37927 0.5
764 1 0.306025 0.369414 0.5
1258 1 0.332741 0.380827 0.5
141 1 0.39093 0.36778 0.5
130 1 0.484582 0.374341 0.5
408 1 0.495827 0.365381 0.5
1204 1 0.477025 0.366119 0.5
368 1 0.520877 0.380697 0.5
939 1 0.50981 0.373061 0.5
378 1 0.535632 0.372778 0.5
364 1 0.564371 0.375364 0.5
1019 1 0.566215 0.379464 0.5
1028 1 0.567405 0.369067 0.5
561 1 0.57865 0.377466 0.5
1439 1 0.603342 0.373576 0.5
1474 1 0.61548 0.370732 0.5
1447 1 0.624346 0.379387 0.5
695 1 0.662781 0.365189 0.5
1184 1 0.654571 0.373652 0.5
1355 1 0.679204 0.375602 0.5
1113 1 0.719485 0.380272 0.5
785 1 0.740012 0.376725 0.5
1485 1 0.760955 0.377904 0.5
1471 1 0.774937 0.35827 0.5
516 1 0.830509 0.371007 0.5
654 1 0.8198 0.378343 0.5
750 1 0.823667 0.364898 0.5
1542 2 0.826165 0.361649 0.5
1122 1 0.890424 0.357304 0.5
1317 1 0.896196 0.370332 0.5
740 1 0.944153 0.379035 0.5
156 1 0.0325096 0.389189 0.5
267 1 0.0388763 0.394651 0.5
1316 1 0.0486942 0.40323 0.5
169 1 0.127113 0.386721 0.5
1247 1 0.144249 0.39765 0.5
132 1 0.188873 0.38258 0.5
377 1 0.184471 0.404521 0.5
1035 1 0.232724 0.3862 0.5
263 1 0.25813 0.386036 0.5
258 1 0.270148 0.384783 0.5
1142 1 0.280978 0.402614 0.5
1594 2 0.312393 0.384424 0.5
1469 1 0.360052 0.39664 0.5
388 1 0.3851 0.383163 0.5
471 1 0.385874 0.383013 0.5
222 1 0.405272 0.400176 0.5
721 1 0.425323 0.401179 0.5
759 1 0.507848 0.401296 0.5
32 1 0.563182 0.398847 0.5
166 1 0.615303 0.400664 0.5
7 1 0.636662 0.382643 0.5
1437 1 0.627678 0.389072 0.5
201 1 0.655761 0.38344 0.5
1307 1 0.663378 0.394048 0.5
376 1 0.733587 0.396285 0.5
464 1 0.729422 0.399093 0.5
1575 2 0.743345 0.397344 0.5
1081 1 0.898399 0.384902 0.5
683 1 0.923032 0.397997 0.5
361 1 0.962123 0.398507 0.5
898 1 0.0164471 0.426329 0.5
1451 1 0.0147802 0.41116 0.5
930 1 0.033523 0.421176 0.5
1192 1 0.0313812 0.424174 0.5
858 1 0.0739817 0.410863 0.5
345 1 0.13723 0.425918 0.5
1141 1 0.120035 0.424327 0.5
833 1 0.15026 0.413247 0.5
1250 1 0.146333 0.413491 0.5
767 1 0.185543 0.419258 0.5
889 1 0.17043 0.417449 0.5
626 1 0.217553 0.418093 0.5
929 1 0.226537 0.411061 0.5
789 1 0.2642 0.407752 0.5
526 1 0.294961 0.416782 0.5
396 1 0.369394 0.410231 0.5
1426 1 0.423658 0.427919 0.5
847 1 0.430739 0.423262 0.5
1205 1 0.513739 0.413045 0.5
1361 1 0.53629 0.422132 0.5
1586 2 0.638033 0.419991 0.5
338 1 0.72621 0.415217 0.5
121 1 0.744297 0.407881 0.5
993 1 0.78208 0.421693 0.5
1585 2 0.775118 0.407494 0.5
1600 2 0.768275 0.405118 0.5
119 1 0.79279 0.42133 0.5
536 1 0.808676 0.415108 0.5
937 1 0.807189 0.421058 0.5
842 1 0.823788 0.412299 0.5
1125 1 0.877755 0.425987 0.5
661 1 0.901435 0.412775 0.5
29 1 0.918393 0.42694 0.5
1497 1 0.981818 0.418935 0.5
1315 1 0.0214458 0.440204 0.5
1364 1 0.00234641 0.436159 0.5
152 1 0.033048 0.437066 0.5
888 1 0.0324532 0.440641 0.5
1151 1 0.0434004 0.431241 0.5
720 1 0.0572636 0.429509 0.5
1173 1 0.0538127 0.430759 0.5
1196 1 0.0896323 0.44971 0.5
1134 1 0.114383 0.443275 0.5
660 1 0.181618 0.451902 0.5
339 1 0.230763 0.437562 0.5
1587 2 0.258431 0.451739 0.5
46 1 0.284431 0.438233 0.5
995 1 0.266999 0.446032 0.5
288 1 0.345715 0.430909 0.5
336 1 0.356187 0.440499 0.5
490 1 0.408071 0.448011 0.5
1545 2 0.419316 0.441946 0.5
1483 1 0.438713 0.451964 0.5
532 1 0.453766 0.450487 0.5
87 1 0.482087 0.441124 0.5
663 1 0.542777 0.448926 0.5
174 1 0.610307 0.43496 0.5
334 1 0.651125 0.450364 0.5
372 1 0.64809 0.450956 0.5
279 1 0.714133 0.433423 0.5
435 1 0.701341 0.438919 0.5
871 1 0.695749 0.447777 0.5
907 1 0.802191 0.431093 0.5
1321 1 0.786603 0.444853 0.5
1473 1 0.788805 0.445861 0.5
303 1 0.819447 0.445008 0.5
1269 1 0.8179 0.451617 0.5
135 1 0.83932 0.445757 0.5
864 1 0.83932 0.442978 0.5
1066 1 0.871985 0.443725 0.5
816 1 0.896498 0.4407 0.5
566 1 0.919643 0.43765 0.5
729 1 0.978786 0.449682 0.5
212 1 0.00960743 0.472077 0.5
1554 2 0.0284086 0.46399 0.5
190 1 0.0785068 0.463591 0.5
283 1 0.17192 0.461815 0.5
515 1 0.169005 0.473408 0.5
1225 1 0.187331 0.473283 0.5
90 1 0.210119 0.470045 0.5
614 1 0.193518 0.456154 0.5
162 1 0.232966 0.465093 0.5
175 1 0.222495 0.475367 0.5
838 1 0.229634 0.459501 0.5
1228 1 0.256944 0.462737 0.5
933 1 0.299486 0.460306 0.5
318 1 0.312874 0.471866 0.5
760 1 0.372729 0.46059 0.5
985 1 0.400635 0.474222 0.5
357 1 0.431813 0.476113 0.5
692 1 0.439369 0.47132 0.5
466 1 0.466441 0.47493 0.5
1239 1 0.521597 0.473447 0.5
1381 1 0.505829 0.469242 0.5
1391 1 0.521358 0.459897 0.5
801 1 0.533019 0.457721 0.5
758 1 0.57098 0.454436 0.5
449 1 0.608464 0.457987 0.5
576 1 0.618402 0.474108 0.5
527 1 0.626196 0.474741 0.5
1468 1 0.634823 0.463875 0.5
1158 1 0.662549 0.46329 0.5
1044 1 0.674568 0.457162 0.5
942 1 0.716634 0.459828 0.5
1536 2 0.733531 0.463773 0.5
1348 1 0.745193 0.462348 0.5
325 1 0.783333 0.472279 0.5
1214 1 0.837655 0.464835 0.5
1011 1 0.903639 0.462698 0.5
199 1 0.909054 0.464323 0.5
551 1 0.918633 0.467249 0.5
143 1 0.949395 0.474643 0.5
631 1 0.935888 0.466866 0.5
667 1 0.947669 0.468819 0.5
1402 1 0.95231 0.471714 0.5
559 1 0.0432842 0.477043 0.5
861 1 0.0767235 0.492024 0.5
779 1 0.154132 0.492748 0.5
644 1 0.17329 0.47944 0.5
122 1 0.249627 0.478646 0.5
936 1 0.264443 0.490151 0.5
1548 2 0.277057 0.497799 0.5
103 1 0.304783 0.485475 0.5
1137 1 0.393378 0.496869 0.5
1176 1 0.382548 0.485628 0.5
251 1 0.412 0.491188 0.5
856 1 0.40855 0.498238 0.5
876 1 0.445498 0.480982 0.5
1207 1 0.451864 0.479221 0.5
1551 2 0.445617 0.480291 0.5
1578 2 0.444725 0.496292 0.5
1249 1 0.457636 0.487272 0.5
830 1 0.503272 0.489374 0.5
859 1 0.51892 0.482178 0.5
1457 1 0.593532 0.494758 0.5
150 1 0.61626 0.489667 0.5
446 1 0.666656 0.486373 0.5
1511 2 0.690336 0.48116 0.5
64 1 0.738531 0.490389 0.5
105 1 0.809513 0.482208 0.5
304 1 0.791068 0.48315 0.5
585 1 0.808026 0.48981 0.5
343 1 0.832003 0.477538 0.5
438 1 0.82891 0.48901 0.5
365 1 0.840333 0.477666 0.5
896 1 0.956951 0.480642 0.5
1146 1 0.95838 0.496827 0.5
233 1 0.0191894 0.516436 0.5
305 1 0.0441195 0.516149 0.5
582 1 0.107188 0.505349 0.5
839 1 0.134617 0.506619 0.5
1311 1 0.135867 0.517149 0.5
289 1 0.185369 0.504084 0.5
1534 2 0.201137 0.511779 0.5
967 1 0.243857 0.502926 0.5
1240 1 0.257185 0.507256 0.5
983 1 0.281342 0.508371 0.5
1165 1 0.295205 0.504041 0.5
313 1 0.311865 0.514096 0.5
609 1 0.349171 0.509174 0.5
537 1 0.406231 0.52306 0.5
984 1 0.433957 0.512748 0.5
22 1 0.55343 0.501596 0.5
200 1 0.550991 0.508029 0.5
1540 2 0.559797 0.513555 0.5
107 1 0.58312 0.500116 0.5
739 1 0.617392 0.504434 0.5
603 1 0.62483 0.523013 0.5
941 1 0.62126 0.515446 0.5
1555 2 0.628815 0.500815 0.5
1421 1 0.661006 0.521279 0.5
1220 1 0.750908 0.515629 0.5
84 1 0.76614 0.508223 0.5
925 1 0.773102 0.517946 0.5
1063 1 0.763819 0.501192 0.5
277 1 0.830934 0.502113 0.5
321 1 0.822664 0.513324 0.5
427 1 0.828971 0.522043 0.5
59 1 0.854139 0.520546 0.5
1504 2 0.888886 0.503597 0.5
638 1 0.931667 0.520977 0.5
646 1 0.946719 0.50103 0.5
1144 1 0.953503 0.522793 0.5
583 1 0.997592 0.523223 0.5
534 1 0.0379331 0.541526 0.5
1503 2 0.0694668 0.529282 0.5
530 1 0.0841047 0.547389 0.5
634 1 0.0798791 0.527509 0.5
1335 1 0.092137 0.545817 0.5
746 1 0.10124 0.540966 0.5
734 1 0.139914 0.541321 0.5
849 1 0.138188 0.529095 0.5
1078 1 0.158181 0.543381 0.5
1334 1 0.142949 0.545167 0.5
38 1 0.191024 0.532251 0.5
241 1 0.198105 0.544123 0.5
611 1 0.204352 0.544618 0.5
227 1 0.279082 0.527134 0.5
702 1 0.267658 0.53397 0.5
126 1 0.327336 0.535283 0.5
573 1 0.384039 0.53793 0.5
829 1 0.390583 0.535131 0.5
743 1 0.452582 0.541401 0.5
726 1 0.497146 0.526286 0.5
1112 1 0.479296 0.525617 0.5
905 1 0.509701 0.546575 0.5
665 1 0.52636 0.529261 0.5
1223 1 0.533024 0.528189 0.5
893 1 0.569973 0.540345 0.5
1200 1 0.606921 0.529187 0.5
1482 1 0.607874 0.539074 0.5
286 1 0.625961 0.524358 0.5
1414 1 0.657853 0.542332 0.5
402 1 0.688495 0.530115 0.5
1072 1 0.675703 0.53857 0.5
505 1 0.735201 0.530519 0.5
662 1 0.78042 0.524757 0.5
1092 1 0.789822 0.541578 0.5
412 1 0.878119 0.547163 0.5
1398 1 0.873537 0.536112 0.5
1049 1 0.894242 0.53163 0.5
1133 1 0.891981 0.526483 0.5
477 1 0.112069 0.551479 0.5
1418 1 0.11314 0.551416 0.5
1169 1 0.129086 0.551673 0.5
254 1 0.166274 0.563605 0.5
977 1 0.158122 0.55567 0.5
249 1 0.171986 0.566757 0.5
493 1 0.197987 0.565335 0.5
54 1 0.234638 0.568098 0.5
848 1 0.231961 0.562225 0.5
908 1 0.238625 0.570545 0.5
825 1 0.328348 0.55312 0.5
371 1 0.345425 0.558681 0.5
1507 2 0.33775 0.566608 0.5
484 1 0.377554 0.555158 0.5
8 1 0.434257 0.562665 0.5
352 1 0.47186 0.55683 0.5
981 1 0.464542 0.555591 0.5
955 1 0.614539 0.562828 0.5
151 1 0.63227 0.567466 0.5
671 1 0.670646 0.554734 0.5
866 1 0.681714 0.569781 0.5
219 1 0.710333 0.560107 0.5
316 1 0.69391 0.55043 0.5
447 1 0.705394 0.563128 0.5
27 1 0.743712 0.565525 0.5
917 1 0.747697 0.550433 0.5
405 1 0.76876 0.556791 0.5
851 1 0.799165 0.56359 0.5
1248 1 0.804162 0.556819 0.5
545 1 0.843432 0.55925 0.5
710 1 0.851405 0.55919 0.5
1282 1 0.848906 0.567573 0.5
1172 1 0.875799 0.552662 0.5
1075 1 0.926671 0.566669 0.5
60 1 0.942497 0.549483 0.5
300 1 0.932384 0.571285 0.5
1445 1 0.945234 0.554635 0.5
633 1 0.982125 0.566487 0.5
422 1 0.0127679 0.590671 0.5
494 1 0.0818465 0.594914 0.5
782 1 0.081311 0.593517 0.5
221 1 0.141167 0.592439 0.5
541 1 0.137001 0.576557 0.5
485 1 0.155505 0.580936 0.5
565 1 0.166513 0.589505 0.5
1492 1 0.177223 0.593564 0.5
205 1 0.221668 0.576259 0.5
472 1 0.231962 0.583113 0.5
1326 1 0.230117 0.575962 0.5
1190 1 0.257011 0.583763 0.5
1407 1 0.319722 0.57251 0.5
47 1 0.358814 0.590042 0.5
968 1 0.373808 0.592401 0.5
610 1 0.406949 0.583667 0.5
386 1 0.44592 0.575437 0.5
1231 1 0.471742 0.575772 0.5
62 1 0.480252 0.587284 0.5
732 1 0.516129 0.57283 0.5
802 1 0.521366 0.590746 0.5
751 1 0.559385 0.578945 0.5
986 1 0.582351 0.575008 0.5
92 1 0.606449 0.591879 0.5
1455 1 0.605437 0.586869 0.5
605 1 0.657678 0.594897 0.5
883 1 0.667911 0.580708 0.5
962 1 0.724317 0.588722 0.5
1237 1 0.749425 0.592016 0.5
1197 1 0.763406 0.571584 0.5
111 1 0.801011 0.587654 0.5
514 1 0.795358 0.584406 0.5
567 1 0.788456 0.576397 0.5
1236 1 0.90198 0.584975 0.5
1097 1 0.932325 0.579316 0.5
659 1 0.988492 0.579619 0.5
1532 2 0.977306 0.581542 0.5
310 1 0.0169928 0.597308 0.5
416 1 0.00497444 0.60533 0.5
1245 1 0.0393654 0.614397 0.5
1104 1 0.070424 0.616995 0.5
1233 1 0.0821455 0.618785 0.5
397 1 0.11713 0.595883 0.5
444 1 0.147178 0.613429 0.5
1409 1 0.151699 0.6099 0.5
1561 2 0.165027 0.612203 0.5
503 1 0.186863 0.61369 0.5
574 1 0.181865 0.60808 0.5
25 1 0.207212 0.606281 0.5
754 1 0.207926 0.605256 0.5
921 1 0.203701 0.601624 0.5
1450 1 0.210662 0.598495 0.5
1527 2 0.231785 0.610306 0.5
1370 1 0.25963 0.604523 0.5
434 1 0.269864 0.608209 0.5
15 1 0.316154 0.603033 0.5
625 1 0.377914 0.603752 0.5
379 1 0.414685 0.616891 0.5
1010 1 0.451514 0.600178 0.5
1460 1 0.474779 0.614594 0.5
504 1 0.486024 0.599005 0.5
780 1 0.48763 0.605614 0.5
845 1 0.484061 0.615797 0.5
1272 1 0.494532 0.599215 0.5
1328 1 0.49233 0.595398 0.5
675 1 0.530351 0.607538 0.5
821 1 0.626442 0.608786 0.5
992 1 0.636855 0.617516 0.5
1301 1 0.638937 0.614496 0.5
1283 1 0.66351 0.607423 0.5
1002 1 0.684454 0.617469 0.5
1380 1 0.710157 0.615459 0.5
538 1 0.779532 0.601021 0.5
510 1 0.796489 0.596246 0.5
979 1 0.8047 0.597042 0.5
1342 1 0.874671 0.597336 0.5
496 1 0.919832 0.616722 0.5
1102 1 0.942262 0.605744 0.5
607 1 0.968323 0.599507 0.5
922 1 0.961362 0.611378 0.5
262 1 0.990278 0.597118 0.5
350 1 0.990636 0.611346 0.5
797 1 0.98772 0.602223 0.5
375 1 0.0146743 0.631279 0.5
498 1 0.069533 0.640901 0.5
569 1 0.0907729 0.620754 0.5
724 1 0.0760771 0.626981 0.5
846 1 0.0891077 0.632695 0.5
1132 1 0.11737 0.638023 0.5
1498 1 0.10297 0.621391 0.5
1021 1 0.128079 0.621781 0.5
1322 1 0.131947 0.630632 0.5
1305 1 0.184603 0.627061 0.5
945 1 0.212033 0.636235 0.5
387 1 0.215245 0.620441 0.5
265 1 0.273555 0.633328 0.5
1288 1 0.296878 0.623575 0.5
285 1 0.316156 0.638182 0.5
470 1 0.31205 0.625594 0.5
311 1 0.334601 0.635557 0.5
373 1 0.388388 0.631272 0.5
188 1 0.427777 0.641347 0.5
560 1 0.422123 0.619105 0.5
1135 1 0.42266 0.642087 0.5
218 1 0.430573 0.639829 0.5
198 1 0.458359 0.635965 0.5
407 1 0.466331 0.631045 0.5
19 1 0.486442 0.638714 0.5
828 1 0.479361 0.623649 0.5
1186 1 0.490487 0.620976 0.5
95 1 0.504709 0.642668 0.5
244 1 0.505898 0.62976 0.5
1320 1 0.52232 0.637871 0.5
900 1 0.558496 0.634806 0.5
1105 1 0.565873 0.624476 0.5
176 1 0.574559 0.620683 0.5
911 1 0.640128 0.625325 0.5
1194 1 0.641795 0.642052 0.5
187 1 0.702364 0.628936 0.5
691 1 0.71224 0.621869 0.5
39 1 0.842603 0.620971 0.5
281 1 0.87271 0.630571 0.5
1032 1 0.858965 0.625891 0.5
680 1 0.969514 0.62926 0.5
1286 1 0.970169 0.624941 0.5
991 1 0.996051 0.631019 0.5
766 1 0.035025 0.665428 0.5
113 1 0.0528151 0.663256 0.5
786 1 0.0816119 0.650619 0.5
1535 2 0.0932144 0.655143 0.5
1111 1 0.0992234 0.646847 0.5
301 1 0.141349 0.646343 0.5
426 1 0.146585 0.657481 0.5
958 1 0.174431 0.65403 0.5
1108 1 0.205013 0.650838 0.5
677 1 0.217686 0.653649 0.5
1182 1 0.234287 0.658477 0.5
596 1 0.261775 0.657162 0.5
362 1 0.285516 0.665769 0.5
620 1 0.275043 0.646561 0.5
1029 1 0.278971 0.66078 0.5
916 1 0.311813 0.64612 0.5
1181 1 0.316753 0.662281 0.5
868 1 0.351857 0.658387 0.5
1261 1 0.334899 0.649638 0.5
1265 1 0.394101 0.656691 0.5
211 1 0.451279 0.653856 0.5
1124 1 0.43111 0.665003 0.5
1148 1 0.430634 0.664716 0.5
1340 1 0.430931 0.651999 0.5