ITEM: TIMESTEP
0
ITEM: NUMBER OF ATOMS
4800
ITEM: BOX BOUNDS pp pp pp
0.0000000000000000e+00 5.2900000000000000e+02
0.0000000000000000e+00 5.2900000000000000e+02
0.0000000000000000e+00 5.2900000000000000e+02
ITEM: ATOMS id type xs ys zs
1 1 0.5 0.5 0.5
2 2 0.5 0.5037 0.5
3 1 0.51 0.5 0.5
4 2 0.51 0.5037 0.5
5 1 0.52 0.5 0.5
6 2 0.52 0.5037 0.5
7 1 0.53 0.5 0.5
8 2 0.53 0.5037 0.5
9 1 0.54 0.5 0.5
10 2 0.54 0.5037 0.5
11 1 0.55 0.5 0.5
12 2 0.55 0.5037 0.5
13 1 0.56 0.5 0.5
14 2 0.56 0.5037 0.5
15 1 0.57 0.5 0.5
16 2 0.57 0.5037 0.5
17 1 0.58 0.5 0.5
18 2 0.58 0.5037 0.5
19 1 0.59 0.5 0.5
20 2 0.59 0.5037 0.5
21 1 0.6 0.5 0.5
22 2 0.6 0.5037 0.5
23 1 0.61 0.5 0.5
24 2 0.61 0.5037 0.5
25 1 0.62 0.5 0.5
26 2 0.62 0.5037 0.5
27 1 0.63 0.5 0.5
28 2 0.63 0.5037 0.5
29 1 0.64 0.5 0.5
30 2 0.64 0.5037 0.5
31 1 0.65 0.5 0.5
32 2 0.65 0.5037 0.5
33 1 0.66 0.5 0.5
34 2 0.66 0.5037 0.5
35 1 0.67 0.5 0.5
36 2 0.67 0.5037 0.5
37 1 0.68 0.5 0.5
38 2 0.68 0.5037 0.5
39 1 0.69 0.5 0.5
40 2 0.69 0.5037 0.5
41 1 0.7 0.5 0.5
42 2 0.7 0.5037 0.5
43 1 0.71 0.5 0.5
44 2 0.71 0.5037 0.5
45 1 0.72 0.5 0.5
46 2 0.72 0.5037 0.5
47 1 0.73 0.5 0.5
48 2 0.73 0.5037 0.5
481 1 0.5 0.52 0.5
483 1 0.51 0.52 0.5
485 1 0.52 0.52 0.5
487 1 0.53 0.52 0.5
489 1 0.54 0.52 0.5
491 1 0.55 0.52 0.5
493 1 0.56 0.52 0.5
495 1 0.57 0.52 0.5
497 1 0.58 0.52 0.5
499 1 0.59 0.52 0.5
501 1 0.6 0.52 0.5
503 1 0.61 0.52 0.5
505 1 0.62 0.52 0.5
507 1 0.63 0.52 0.5
509 1 0.64 0.52 0.5
511 1 0.65 0.52 0.5
513 1 0.66 0.52 0.5
515 1 0.67 0.52 0.5
517 1 0.68 0.52 0.5
519 1 0.69 0.52 0.5
521 1 0.7 0.52 0.5
523 1 0.71 0.52 0.5
525 1 0.72 0.52 0.5
527 1 0.73 0.52 0.5
482 2 0.5 0.5237 0.5
484 2 0.51 0.5237 0.5
486 2 0.52 0.5237 0.5
488 2 0.53 0.5237 0.5
490 2 0.54 0.5237 0.5
492 2 0.55 0.5237 0.5
494 2 0.56 0.5237 0.5
496 2 0.57 0.5237 0.5
498 2 0.58 0.5237 0.5
500 2 0.59 0.5237 0.5
502 2 0.6 0.5237 0.5
504 2 0.61 0.5237 0.5
506 2 0.62 0.5237 0.5
508 2 0.63 0.5237 0.5
510 2 0.64 0.5237 0.5
512 2 0.65 0.5237 0.5
514 2 0.66 0.5237 0.5
516 2 0.67 0.5237 0.5
518 2 0.68 0.5237 0.5
520 2 0.69 0.5237 0.5
522 2 0.7 0.5237 0.5
524 2 0.71 0.5237 0.5
526 2 0.72 0.5237 0.5
528 2 0.73 0.5237 0.5
961 1 0.5 0.54 0.5
962 2 0.5 0.5437 0.5
963 1 0.51 0.54 0.5
964 2 0.51 0.5437 0.5
965 1 0.52 0.54 0.5
966 2 0.52 0.5437 0.5
967 1 0.53 0.54 0.5
968 2 0.53 0.5437 0.5
969 1 0.54 0.54 0.5
970 2 0.54 0.5437 0.5
971 1 0.55 0.54 0.5
972 2 0.55 0.5437 0.5
973 1 0.56 0.54 0.5
974 2 0.56 0.5437 0.5
975 1 0.57 0.54 0.5
976 2 0.57 0.5437 0.5
977 1 0.58 0.54 0.5
978 2 0.58 0.5437 0.5
979 1 0.59 0.54 0.5
980 2 0.59 0.5437 0.5
981 1 0.6 0.54 0.5
982 2 0.6 0.5437 0.5
983 1 0.61 0.54 0.5
984 2 0.61 0.5437 0.5
985 1 0.62 0.54 0.5
986 2 0.62 0.5437 0.5
987 1 0.63 0.54 0.5
988 2 0.63 0.5437 0.5
989 1 0.64 0.54 0.5
990 2 0.64 0.5437 0.5
991 1 0.65 0.54 0.5
992 2 0.65 0.5437 0.5
993 1 0.66 0.54 0.5
994 2 0.66 0.5437 0.5
995 1 0.67 0.54 0.5
996 2 0.67 0.5437 0.5
997 1 0.68 0.54 0.5
998 2 0.68 0.5437 0.5
999 1 0.69 0.54 0.5
1000 2 0.69 0.5437 0.5
1001 1 0.7 0.54 0.5
1002 2 0.7 0.5437 0.5
1003 1 0.71 0.54 0.5
1004 2 0.71 0.5437 0.5
1005 1 0.72 0.54 0.5
1006 2 0.72 0.5437 0.5
1007 1 0.73 0.54 0.5
1008 2 0.73 0.5437 0.5
1441 1 0.5 0.56 0.5
1442 2 0.5 0.5637 0.5
1443 1 0.51 0.56 0.5
1444 2 0.51 0.5637 0.5
1445 1 0.52 0.56 0.5
1446 2 0.52 0.5637 0.5
1447 1 0.53 0.56 0.5
1448 2 0.53 0.5637 0.5
1449 1 0.54 0.56 0.5
1450 2 0.54 0.5637 0.5
1451 1 0.55 0.56 0.5
1452 2 0.55 0.5637 0.5
1453 1 0.56 0.56 0.5
1454 2 0.56 0.5637 0.5
1455 1 0.57 0.56 0.5
1456 2 0.57 0.5637 0.5
1457 1 0.58 0.56 0.5
1458 2 0.58 0.5637 0.5
1459 1 0.59 0.56 0.5
1460 2 0.59 0.5637 0.5
1461 1 0.6 0.56 0.5
1462 2 0.6 0.5637 0.5
1463 1 0.61 0.56 0.5
1464 2 0.61 0.5637 0.5
1465 1 0.62 0.56 0.5
1466 2 0.62 0.5637 0.5
1467 1 0.63 0.56 0.5
1468 2 0.63 0.5637 0.5
1469 1 0.64 0.56 0.5
1470 2 0.64 0.5637 0.5
1471 1 0.65 0.56 0.5
1472 2 0.65 0.5637 0.5
1473 1 0.66 0.56 0.5
1474 2 0.66 0.5637 0.5
1475 1 0.67 0.56 0.5
1476 2 0.67 0.5637 0.5
1477 1 0.68 0.56 0.5
1478 2 0.68 0.5637 0.5
1479 1 0.69 0.56 0.5
1480 2 0.69 0.5637 0.5
1481 1 0.7 0.56 0.5
1482 2 0.7 0.5637 0.5
1483 1 0.71 0.56 0.5
1484 2 0.71 0.5637 0.5
1485 1 0.72 0.56 0.5
1486 2 0.72 0.5637 0.5
1487 1 0.73 0.56 0.5
1488 2 0.73 0.5637 0.5
1921 1 0.5 0.58 0.5
1923 1 0.51 0.58 0.5
1925 1 0.52 0.58 0.5
1927 1 0.53 0.58 0.5
1929 1 0.54 0.58 0.5
1931 1 0.55 0.58 0.5
1933 1 0.56 0.58 0.5
1935 1 0.57 0.58 0.5
1937 1 0.58 0.58 0.5
1939 1 0.59 0.58 0.5
1941 1 0.6 0.58 0.5
1943 1 0.61 0.58 0.5
1945 1 0.62 0.58 0.5
1947 1 0.63 0.58 0.5
1949 1 0.64 0.58 0.5
1951 1 0.65 0.58 0.5
1953 1 0.66 0.58 0.5
1955 1 0.67 0.58 0.5
1957 1 0.68 0.58 0.5
1959 1 0.69 0.58 0.5
1961 1 0.7 0.58 0.5
1963 1 0.71 0.58 0.5
1965 1 0.72 0.58 0.5
1967 1 0.73 0.58 0.5
1922 2 0.5 0.5837 0.5
1924 2 0.51 0.5837 0.5
1926 2 0.52 0.5837 0.5
1928 2 0.53 0.5837 0.5
1930 2 0.54 0.5837 0.5
1932 2 0.55 0.5837 0.5
1934 2 0.56 0.5837 0.5
1936 2 0.57 0.5837 0.5
1938 2 0.58 0.5837 0.5
1940 2 0.59 0.5837 0.5
1942 2 0.6 0.5837 0.5
1944 2 0.61 0.5837 0.5
1946 2 0.62 0.5837 0.5
1948 2 0.63 0.5837 0.5
1950 2 0.64 0.5837 0.5
1952 2 0.65 0.5837 0.5
1954 2 0.66 0.5837 0.5
1956 2 0.67 0.5837 0.5
1958 2 0.68 0.5837 0.5
1960 2 0.69 0.5837 0.5
1962 2 0.7 0.5837 0.5
1964 2 0.71 0.5837 0.5
1966 2 0.72 0.5837 0.5
1968 2 0.73 0.5837 0.5
2401 1 0.5 0.6 0.5
2402 2 0.5 0.6037 0.5
2403 1 0.51 0.6 0.5
2404 2 0.51 0.6037 0.5
2405 1 0.52 0.6 0.5
2406 2 0.52 0.6037 0.5
2407 1 0.53 0.6 0.5
2408 2 0.53 0.6037 0.5
2409 1 0.54 0.6 0.5
2410 2 0.54 0.6037 0.5
2411 1 0.55 0.6 0.5
2412 2 0.55 0.6037 0.5
2413 1 0.56 0.6 0.5
2414 2 0.56 0.6037 0.5
2415 1 0.57 0.6 0.5
2416 2 0.57 0.6037 0.5
2417 1 0.58 0.6 0.5
2418 2 0.58 0.6037 0.5
2419 1 0.59 0.6 0.5
2420 2 0.59 0.6037 0.5
2421 1 0.6 0.6 0.5
2422 2 0.6 0.6037 0.5
2423 1 0.61 0.6 0.5
2424 2 0.61 0.6037 0.5
2425 1 0.62 0.6 0.5
2426 2 0.62 0.6037 0.5
2427 1 0.63 0.6 0.5
2428 2 0.63 0.6037 0.5
2429 1 0.64 0.6 0.5
2430 2 0.64 0.6037 0.5
2431 1 0.65 0.6 0.5
2432 2 0.65 0.6037 0.5
2433 1 0.66 0.6 0.5
2434 2 0.66 0.6037 0.5
2435 1 0.67 0.6 0.5
2436 2 0.67 0.6037 0.5
2437 1 0.68 0.6 0.5
2438 2 0.68 0.6037 0.5
2439 1 0.69 0.6 0.5
2440 2 0.69 0.6037 0.5
2441 1 0.7 0.6 0.5
2442 2 0.7 0.6037 0.5
2443 1 0.71 0.6 0.5
2444 2 0.71 0.6037 0.5
2445 1 0.72 0.6 0.5
2446 2 0.72 0.6037 0.5
2447 1 0.73 0.6 0.5
2448 2 0.73 0.6037 0.5
2881 1 0.5 0.62 0.5
2882 2 0.5 0.6237 0.5
2883 1 0.51 0.62 0.5
2884 2 0.51 0.6237 0.5
2885 1 0.52 0.62 0.5
2886 2 0.52 0.6237 0.5
2887 1 0.53 0.62 0.5
2888 2 0.53 0.6237 0.5
2889 1 0.54 0.62 0.5
2890 2 0.54 0.6237 0.5
2891 1 0.55 0.62 0.5
2892 2 0.55 0.6237 0.5
2893 1 0.56 0.62 0.5
2894 2 0.56 0.6237 0.5
2895 1 0.57 0.62 0.5
2896 2 0.57 0.6237 0.5
2897 1 0.58 0.62 0.5
2898 2 0.58 0.6237 0.5
2899 1 0.59 0.62 0.5
2900 2 0.59 0.6237 0.5
2901 1 0.6 0.62 0.5
2902 2 0.6 0.6237 0.5
2903 1 0.61 0.62 0.5
2904 2 0.61 0.6237 0.5
2905 1 0.62 0.62 0.5
2906 2 0.62 0.6237 0.5
2907 1 0.63 0.62 0.5
2908 2 0.63 0.6237 0.5
2909 1 0.64 0.62 0.5
2910 2 0.64 0.6237 0.5
2911 1 0.65 0.62 0.5
2912 2 0.65 0.6237 0.5
2913 1 0.66 0.62 0.5
2914 2 0.66 0.6237 0.5
2915 1 0.67 0.62 0.5
2916 2 0.67 0.6237 0.5
2917 1 0.68 0.62 0.5
2918 2 0.68 0.6237 0.5
2919 1 0.69 0.62 0.5
2920 2 0.69 0.6237 0.5
2921 1 0.7 0.62 0.5
2922 2 0.7 0.6237 0.5
2923 1 0.71 0.62 0.5
2924 2 0.71 0.6237 0.5
2925 1 0.72 0.62 0.5
2926 2 0.72 0.6237 0.5
2927 1 0.73 0.62 0.5
2928 2 0.73 0.6237 0.5
3361 1 0.5 0.64 0.5
3363 1 0.51 0.64 0.5
3365 1 0.52 0.64 0.5
3367 1 0.53 0.64 0.5
3369 1 0.54 0.64 0.5
3371 1 0.55 0.64 0.5
3373 1 0.56 0.64 0.5
3375 1 0.57 0.64 0.5
3377 1 0.58 0.64 0.5
3379 1 0.59 0.64 0.5
3381 1 0.6 0.64 0.5
3383 1 0.61 0.64 0.5
3385 1 0.62 0.64 0.5
3387 1 0.63 0.64 0.5
3389 1 0.64 0.64 0.5
3391 1 0.65 0.64 0.5
3393 1 0.66 0.64 0.5
3395 1 0.67 0.64 0.5
3397 1 0.68 0.64 0.5
3399 1 0.69 0.64 0.5
3401 1 0.7 0.64 0.5
3403 1 0.71 0.64 0.5
3405 1 0.72 0.64 0.5
3407 1 0.73 0.64 0.5
3362 2 0.5 0.6437 0.5
3364 2 0.51 0.6437 0.5
3366 2 0.52 0.6437 0.5
3368 2 0.53 0.6437 0.5
3370 2 0.54 0.6437 0.5
3372 2 0.55 0.6437 0.5
3374 2 0.56 0.6437 0.5
3376 2 0.57 0.6437 0.5
3378 2 0.58 0.6437 0.5
3380 2 0.59 0.6437 0.5
3382 2 0.6 0.6437 0.5
3384 2 0.61 0.6437 0.5
3386 2 0.62 0.6437 0.5
3388 2 0.63 0.6437 0.5
3390 2 0.64 0.6437 0.5
3392 2 0.65 0.6437 0.5
3394 2 0.66 0.6437 0.5
3396 2 0.67 0.6437 0.5
3398 2 0.68 0.6437 0.5
3400 2 0.69 0.6437 0.5
3402 2 0.7 0.6437 0.5
3404 2 0.71 0.6437 0.5
3406 2 0.72 0.6437 0.5
3408 2 0.73 0.6437 0.5
3841 1 0.5 0.66 0.5
3842 2 0.5 0.6637 0.5
3843 1 0.51 0.66 0.5
3844 2 0.51 0.6637 0.5
3845 1 0.52 0.66 0.5
3846 2 0.52 0.6637 0.5
3847 1 0.53 0.66 0.5
3848 2 0.53 0.6637 0.5
3849 1 0.54 0.66 0.5
3850 2 0.54 0.6637 0.5
3851 1 0.55 0.66 0.5
3852 2 0.55 0.6637 0.5
3853 1 0.56 0.66 0.5
3854 2 0.56 0.6637 0.5
3855 1 0.57 0.66 0.5
3856 2 0.57 0.6637 0.5
3857 1 0.58 0.66 0.5
3858 2 0.58 0.6637 0.5
3859 1 0.59 0.66 0.5
3860 2 0.59 0.6637 0.5
3861 1 0.6 0.66 0.5
3862 2 0.6 0.6637 0.5
3863 1 0.61 0.66 0.5
3864 2 0.61 0.6637 0.5
3865 1 0.62 0.66 0.5
3866 2 0.62 0.6637 0.5
3867 1 0.63 0.66 0.5
3868 2 0.63 0.6637 0.5
3869 1 0.64 0.66 0.5
3870 2 0.64 0.6637 0.5
3871 1 0.65 0.66 0.5
3872 2 0.65 0.6637 0.5
3873 1 0.66 0.66 0.5
3874 2 0.66 0.6637 0.5
3875 1 0.67 0.66 0.5
3876 2 0.67 0.6637 0.5
3877 1 0.68 0.66 0.5
3878 2 0.68 0.6637 0.5
3879 1 0.69 0.66 0.5
3880 2 0.69 0.6637 0.5
3881 1 0.7 0.66 0.5
3882 2 0.7 0.6637 0.5
3883 1 0.71 0.66 0.5
3884 2 0.71 0.6637 0.5
3885 1 0.72 0.66 0.5
3886 2 0.72 0.6637 0.5
3887 1 0.73 0.66 0.5
3888 2 0.73 0.6637 0.5
4321 1 0.5 0.68 0.5
4322 2 0.5 0.6837 0.5
4323 1 0.51 0.68 0.5
4324 2 0.51 0.6837 0.5
4325 1 0.52 0.68 0.5
4326 2 0.52 0.6837 0.5
4327 1 0.53 0.68 0.5
4328 2 0.53 0.6837 0.5
4329 1 0.54 0.68 0.5
4330 2 0.54 0.6837 0.5
4331 1 0.55 0.68 0.5
4332 2 0.55 0.6837 0.5
4333 1 0.56 0.68 0.5
4334 2 0.56 0.6837 0.5
4335 1 0.57 0.68 0.5
4336 2 0.57 0.6837 0.5
4337 1 0.58 0.68 0.5
4338 2 0.58 0.6837 0.5
4339 1 0.59 0.68 0.5
4340 2 0.59 0.6837 0.5
4341 1 0.6 0.68 0.5
4342 2 0.6 0.6837 0.5
4343 1 0.61 0.68 0.5
4344 2 0.61 0.6837 0.5
4345 1 0.62 0.68 0.5
4346 2 0.62 0.6837 0.5
4347 1 0.63 0.68 0.5
4348 2 0.63 0.6837 0.5
4349 1 0.64 0.68 0.5
4350 2 0.64 0.6837 0.5
4351 1 0.65 0.68 0.5
4352 2 0.65 0.6837 0.5
4353 1 0.66 0.68 0.5
4354 2 0.66 0.6837 0.5
4355 1 0.67 0.68 0.5
4356 2 0.67 0.6837 0.5
4357 1 0.68 0.68 0.5
4358 2 0.68 0.6837 0.5
4359 1 0.69 0.68 0.5
4360 2 0.69 0.6837 0.5
4361 1 0.7 0.68 0.5
4362 2 0.7 0.6837 0.5
4363 1 0.71 0.68 0.5
4364 2 0.71 0.6837 0.5
4365 1 0.72 0.68 0.5
4366 2 0.72 0.6837 0.5
4367 1 0.73 0.68 0.5
4368 2 0.73 0.6837 0.5
49 1 0.5 0.5 0.52
50 2 0.5 0.5037 0.52
51 1 0.51 0.5 0.52
52 2 0.51 0.5037 0.52
53 1 0.52 0.5 0.52
54 2 0.52 0.5037 0.52
55 1 0.53 0.5 0.52
56 2 0.53 0.5037 0.52
57 1 0.54 0.5 0.52
58 2 0.54 0.5037 0.52
59 1 0.55 0.5 0.52
60 2 0.55 0.5037 0.52
61 1 0.56 0.5 0.52
62 2 0.56 0.5037 0.52
63 1 0.57 0.5 0.52
64 2 0.57 0.5037 0.52
65 1 0.58 0.5 0.52
66 2 0.58 0.5037 0.52
67 1 0.59 0.5 0.52
68 2 0.59 0.5037 0.52
69 1 0.6 0.5 0.52
70 2 0.6 0.5037 0.52
71 1 0.61 0.5 0.52
72 2 0.61 0.5037 0.52
73 1 0.62 0.5 0.52
74 2 0.62 0.5037 0.52
75 1 0.63 0.5 0.52
76 2 0.63 0.5037 0.52
77 1 0.64 0.5 0.52
78 2 0.64 0.5037 0.52
79 1 0.65 0.5 0.52
80 2 0.65 0.5037 0.52
81 1 0.66 0.5 0.52
82 2 0.66 0.5037 0.52
83 1 0.67 0.5 0.52
84 2 0.67 0.5037 0.52
85 1 0.68 0.5 0.52
86 2 0.68 0.5037 0.52
87 1 0.69 0.5 0.52
88 2 0.69 0.5037 0.52
89 1 0.7 0.5 0.52
90 2 0.7 0.5037 0.52
91 1 0.71 0.5 0.52
92 2 0.71 0.5037 0.52
93 1 0.72 0.5 0.52
94 2 0.72 0.5037 0.52
95 1 0.73 0.5 0.52
96 2 0.73 0.5037 0.52
529 1 0.5 0.52 0.52
531 1 0.51 0.52 0.52
533 1 0.52 0.52 0.52
535 1 0.53 0.52 0.52
537 1 0.54 0.52 0.52
539 1 0.55 0.52 0.52
541 1 0.56 0.52 0.52
543 1 0.57 0.52 0.52
545 1 0.58 0.52 0.52
547 1 0.59 0.52 0.52
549 1 0.6 0.52 0.52
551 1 0.61 0.52 0.52
553 1 0.62 0.52 0.52
555 1 0.63 0.52 0.52
557 1 0.64 0.52 0.52
559 1 0.65 0.52 0.52
561 1 0.66 0.52 0.52
563 1 0.67 0.52 0.52
565 1 0.68 0.52 0.52
567 1 0.69 0.52 0.52
569 1 0.7 0.52 0.52
571 1 0.71 0.52 0.52
573 1 0.72 0.52 0.52
575 1 0.73 0.52 0.52
530 2 0.5 0.5237 0.52
532 2 0.51 0.5237 0.52
534 2 0.52 0.5237 0.52
536 2 0.53 0.5237 0.52
538 2 0.54 0.5237 0.52
540 2 0.55 0.5237 0.52
542 2 0.56 0.5237 0.52
544 2 0.57 0.5237 0.52
546 2 0.58 0.5237 0.52
548 2 0.59 0.5237 0.52
550 2 0.6 0.5237 0.52
552 2 0.61 0.5237 0.52
554 2 0.62 0.5237 0.52
556 2 0.63 0.5237 0.52
558 2 0.64 0.5237 0.52
560 2 0.65 0.5237 0.52
562 2 0.66 0.5237 0.52
564 2 0.67 0.5237 0.52
566 2 0.68 0.5237 0.52
568 2 0.69 0.5237 0.52
570 2 0.7 0.5237 0.52
572 2 0.71 0.5237 0.52
574 2 0.72 0.5237 0.52
576 2 0.73 0.5237 0.52
1009 1 0.5 0.54 0.52
1010 2 0.5 0.5437 0.52
1011 1 0.51 0.54 0.52
1012 2 0.51 0.5437 0.52
1013 1 0.52 0.54 0.52
1014 2 0.52 0.5437 0.52
1015 1 0.53 0.54 0.52
1016 2 0.53 0.5437 0.52
1017 1 0.54 0.54 0.52
1018 2 0.54 0.5437 0.52
1019 1 0.55 0.54 0.52
1020 2 0.55 0.5437 0.52
1021 1 0.56 0.54 0.52
1022 2 0.56 0.5437 0.52
1023 1 0.57 0.54 0.52
1024 2 0.57 0.5437 0.52
1025 1 0.58 0.54 0.52
1026 2 0.58 0.5437 0.52
1027 1 0.59 0.54 0.52
1028 2 0.59 0.5437 0.52
1029 1 0.6 0.54 0.52
1030 2 0.6 0.5437 0.52
1031 1 0.61 0.54 0.52
1032 2 0.61 0.5437 0.52
1033 1 0.62 0.54 0.52
1034 2 0.62 0.5437 0.52
1035 1 0.63 0.54 0.52
1036 2 0.63 0.5437 0.52
1037 1 0.64 0.54 0.52
1038 2 0.64 0.5437 0.52
1039 1 0.65 0.54 0.52
1040 2 0.65 0.5437 0.52
1041 1 0.66 0.54 0.52
1042 2 0.66 0.5437 0.52
1043 1 0.67 0.54 0.52
1044 2 0.67 0.5437 0.52
1045 1 0.68 0.54 0.52
1046 2 0.68 0.5437 0.52
1047 1 0.69 0.54 0.52
1048 2 0.69 0.5437 0.52
1049 1 0.7 0.54 0.52
1050 2 0.7 0.5437 0.52
1051 1 0.71 0.54 0.52
1052 2 0.71 0.5437 0.52
1053 1 0.72 0.54 0.52
1054 2 0.72 0.5437 0.52
1055 1 0.73 0.54 0.52
1056 2 0.73 0.5437 0.52
1489 1 0.5 0.56 0.52
1490 2 0.5 0.5637 0.52
1491 1 0.51 0.56 0.52
1492 2 0.51 0.5637 0.52
1493 1 0.52 0.56 0.52
1494 2 0.52 0.5637 0.52
1495 1 0.53 0.56 0.52
1496 2 0.53 0.5637 0.52
1497 1 0.54 0.56 0.52
1498 2 0.54 0.5637 0.52
1499 1 0.55 0.56 0.52
1500 2 0.55 0.5637 0.52
1501 1 0.56 0.56 0.52
1502 2 0.56 0.5637 0.52
1503 1 0.57 0.56 0.52
1504 2 0.57 0.5637 0.52
1505 1 0.58 0.56 0.52
1506 2 0.58 0.5637 0.52
1507 1 0.59 0.56 0.52
1508 2 0.59 0.5637 0.52
1509 1 0.6 0.56 0.52
1510 2 0.6 0.5637 0.52
1511 1 0.61 0.56 0.52
1512 2 0.61 0.5637 0.52
1513 1 0.62 0.56 0.52
1514 2 0.62 0.5637 0.52
1515 1 0.63 0.56 0.52
1516 2 0.63 0.5637 0.52
1517 1 0.64 0.56 0.52
1518 2 0.64 0.5637 0.52
1519 1 0.65 0.56 0.52
1520 2 0.65 0.5637 0.52
1521 1 0.66 0.56 0.52
1522 2 0.66 0.5637 0.52
1523 1 0.67 0.56 0.52
1524 2 0.67 0.5637 0.52
1525 1 0.68 0.56 0.52
1526 2 0.68 0.5637 0.52
1527 1 0.69 0.56 0.52
1528 2 0.69 0.5637 0.52
1529 1 0.7 0.56 0.52
1530 2 0.7 0.5637 0.52
1531 1 0.71 0.56 0.52
1532 2 0.71 0.5637 0.52
1533 1 0.72 0.56 0.52
1534 2 0.72 0.5637 0.52
1535 1 0.73 0.56 0.52
1536 2 0.73 0.5637 0.52
1969 1 0.5 0.58 0.52
1971 1 0.51 0.58 0.52
1973 1 0.52 0.58 0.52
1975 1 0.53 0.58 0.52
1977 1 0.54 0.58 0.52
1979 1 0.55 0.58 0.52
1981 1 0.56 0.58 0.52
1983 1 0.57 0.58 0.52
1985 1 0.58 0.58 0.52
1987 1 0.59 0.58 0.52
1989 1 0.6 0.58 0.52
1991 1 0.61 0.58 0.52
1993 1 0.62 0.58 0.52
1995 1 0.63 0.58 0.52
1997 1 0.64 0.58 0.52
1999 1 0.65 0.58 0.52
2001 1 0.66 0.58 0.52
2003 1 0.67 0.58 0.52
2005 1 0.68 0.58 0.52
2007 1 0.69 0.58 0.52
2009 1 0.7 0.58 0.52
2011 1 0.71 0.58 0.52
2013 1 0.72 0.58 0.52
2015 1 0.73 0.58 0.52
1970 2 0.5 0.5837 0.52
1972 2 0.51 0.5837 0.52
1974 2 0.52 0.5837 0.52
1976 2 0.53 0.5837 0.52
1978 2 0.54 0.5837 0.52
1980 2 0.55 0.5837 0.52
1982 2 0.56 0.5837 0.52
1984 2 0.57 0.5837 0.52
1986 2 0.58 0.5837 0.52
1988 2 0.59 0.5837 0.52
1990 2 0.6 0.5837 0.52
1992 2 0.61 0.5837 0.52
1994 2 0.62 0.5837 0.52
1996 2 0.63 0.5837 0.52
1998 2 0.64 0.5837 0.52
2000 2 0.65 0.5837 0.52
2002 2 0.66 0.5837 0.52
2004 2 0.67 0.5837 0.52
2006 2 0.68 0.5837 0.52
2008 2 0.69 0.5837 0.52
2010 2 0.7 0.5837 0.52
2012 2 0.71 0.5837 0.52
2014 2 0.72 0.5837 0.52
2016 2 0.73 0.5837 0.52
2449 1 0.5 0.6 0.52
2450 2 0.5 0.6037 0.52
2451 1 0.51 0.6 0.52
2452 2 0.51 0.6037 0.52
2453 1 0.52 0.6 0.52
2454 2 0.52 0.6037 0.52
2455 1 0.53 0.6 0.52
2456 2 0.53 0.6037 0.52
2457 1 0.54 0.6 0.52
2458 2 0.54 0.6037 0.52
2459 1 0.55 0.6 0.52
2460 2 0.55 0.6037 0.52
2461 1 0.56 0.6 0.52
2462 2 0.56 0.6037 0.52
2463 1 0.57 0.6 0.52
2464 2 0.57 0.6037 0.52
2465 1 0.58 0.6 0.52
2466 2 0.58 0.6037 0.52
2467 1 0.59 0.6 0.52
2468 2 0.59 0.6037 0.52
2469 1 0.6 0.6 0.52
2470 2 0.6 0.6037 0.52
2471 1 0.61 0.6 0.52
2472 2 0.61 0.6037 0.52
2473 1 0.62 0.6 0.52
2474 2 0.62 0.6037 0.52
2475 1 0.63 0.6 0.52
2476 2 0.63 0.6037 0.52
2477 1 0.64 0.6 0.52
2478 2 0.64 0.6037 0.52
2479 1 0.65 0.6 0.52
2480 2 0.65 0.6037 0.52
2481 1 0.66 0.6 0.52
2482 2 0.66 0.6037 0.52
2483 1 0.67 0.6 0.52
2484 2 0.67 0.6037 0.52
2485 1 0.68 0.6 0.52
2486 2 0.68 0.6037 0.52
2487 1 0.69 0.6 0.52
2488 2 0.69 0.6037 0.52
2489 1 0.7 0.6 0.52
2490 2 0.7 0.6037 0.52
2491 1 0.71 0.6 0.52
2492 2 0.71 0.6037 0.52
2493 1 0.72 0.6 0.52
2494 2 0.72 0.6037 0.52
2495 1 0.73 0.6 0.52
2496 2 0.73 0.6037 0.52
2929 1 0.5 0.62 0.52
2930 2 0.5 0.6237 0.52
2931 1 0.51 0.62 0.52
2932 2 0.51 0.6237 0.52
2933 1 0.52 0.62 0.52
2934 2 0.52 0.6237 0.52
2935 1 0.53 0.62 0.52
2936 2 0.53 0.6237 0.52
2937 1 0.54 0.62 0.52
2938 2 0.54 0.6237 0.52
2939 1 0.55 0.62 0.52
2940 2 0.55 0.6237 0.52
2941 1 0.56 0.62 0.52
2942 2 0.56 0.6237 0.52
2943 1 0.57 0.62 0.52
2944 2 0.57 0.6237 0.52
2945 1 0.58 0.62 0.52
2946 2 0.58 0.6237 0.52
2947 1 0.59 0.62 0.52
2948 2 0.59 0.6237 0.52
2949 1 0.6 0.62 0.52
2950 2 0.6 0.6237 0.52
2951 1 0.61 0.62 0.52
2952 2 0.61 0.6237 0.52
2953 1 0.62 0.62 0.52
2954 2 0.62 0.6237 0.52
2955 1 0.63 0.62 0.52
2956 2 0.63 0.6237 0.52
2957 1 0.64 0.62 0.52
2958 2 0.64 0.6237 0.52
2959 1 0.65 0.62 0.52
2960 2 0.65 0.6237 0.52
2961 1 0.66 0.62 0.52
2962 2 0.66 0.6237 0.52
2963 1 0.67 0.62 0.52
2964 2 0.67 0.6237 0.52
2965 1 0.68 0.62 0.52
2966 2 0.68 0.6237 0.52
2967 1 0.69 0.62 0.52
2968 2 0.69 0.6237 0.52
2969 1 0.7 0.62 0.52
2970 2 0.7 0.6237 0.52
2971 1 0.71 0.62 0.52
2972 2 0.71 0.6237 0.52
2973 1 0.72 0.62 0.52
2974 2 0.72 0.6237 0.52
2975 1 0.73 0.62 0.52
2976 2 0.73 0.6237 0.52
3409 1 0.5 0.64 0.52
3411 1 0.51 0.64 0.52
3413 1 0.52 0.64 0.52
3415 1 0.53 0.64 0.52
3417 1 0.54 0.64 0.52
3419 1 0.55 0.64 0.52
3421 1 0.56 0.64 0.52
3423 1 0.57 0.64 0.52
3425 1 0.58 0.64 0.52
3427 1 0.59 0.64 0.52
3429 1 0.6 0.64 0.52
3431 1 0.61 0.64 0.52
3433 1 0.62 0.64 0.52
3435 1 0.63 0.64 0.52
3437 1 0.64 0.64 0.52
3439 1 0.65 0.64 0.52
3441 1 0.66 0.64 0.52
3443 1 0.67 0.64 0.52
3445 1 0.68 0.64 0.52
3447 1 0.69 0.64 0.52
3449 1 0.7 0.64 0.52
3451 1 0.71 0.64 0.52
3453 1 0.72 0.64 0.52
3455 1 0.73 0.64 0.52
3410 2 0.5 0.6437 0.52
3412 2 0.51 0.6437 0.52
3414 2 0.52 0.6437 0.52
3416 2 0.53 0.6437 0.52
3418 2 0.54 0.6437 0.52
3420 2 0.55 0.6437 0.52
3422 2 0.56 0.6437 0.52
3424 2 0.57 0.6437 0.52
3426 2 0.58 0.6437 0.52
3428 2 0.59 0.6437 0.52
3430 2 0.6 0.6437 0.52
3432 2 0.61 0.6437 0.52
3434 2 0.62 0.6437 0.52
3436 2 0.63 0.6437 0.52
3438 2 0.64 0.6437 0.52
3440 2 0.65 0.6437 0.52
3442 2 0.66 0.6437 0.52
3444 2 0.67 0.6437 0.52
3446 2 0.68 0.6437 0.52
3448 2 0.69 0.6437 0.52
3450 2 0.7 0.6437 0.52
3452 2 0.71 0.6437 0.52
3454 2 0.72 0.6437 0.52
3456 2 0.73 0.6437 0.52
3889 1 0.5 0.66 0.52
3890 2 0.5 0.6637 0.52
3891 1 0.51 0.66 0.52
3892 2 0.51 0.6637 0.52
3893 1 0.52 0.66 0.52
3894 2 0.52 0.6637 0.52
3895 1 0.53 0.66 0.52
3896 2 0.53 0.6637 0.52
3897 1 0.54 0.66 0.52
3898 2 0.54 0.6637 0.52
3899 1 0.55 0.66 0.52
3900 2 0.55 0.6637 0.52
3901 1 0.56 0.66 0.52
3902 2 0.56 0.6637 0.52
3903 1 0.57 0.66 0.52
3904 2 0.57 0.6637 0.52
3905 1 0.58 0.66 0.52
3906 2 0.58 0.6637 0.52
3907 1 0.59 0.66 0.52
3908 2 0.59 0.6637 0.52
3909 1 0.6 0.66 0.52
3910 2 0.6 0.6637 0.52
3911 1 0.61 0.66 0.52
3912 2 0.61 0.6637 0.52
3913 1 0.62 0.66 0.52
3914 2 0.62 0.6637 0.52
3915 1 0.63 0.66 0.52
3916 2 0.63 0.6637 0.52
3917 1 0.64 0.66 0.52
3918 2 0.64 0.6637 0.52
3919 1 0.65 0.66 0.52
3920 2 0.65 0.6637 0.52
3921 1 0.66 0.66 0.52
3922 2 0.66 0.6637 0.52
3923 1 0.67 0.66 0.52
3924 2 0.67 0.6637 0.52
3925 1 0.68 0.66 0.52
3926 2 0.68 0.6637 0.52
3927 1 0.69 0.66 0.52
3928 2 0.69 0.6637 0.52
3929 1 0.7 0.66 0.52
3930 2 0.7 0.6637 0.52
3931 1 0.71 0.66 0.52
3932 2 0.71 0.6637 0.52
3933 1 0.72 0.66 0.52
3934 2 0.72 0.6637 0.52
3935 1 0.73 0.66 0.52
3936 2 0.73 0.6637 0.52
4369 1 0.5 0.68 0.52
4370 2 0.5 0.6837 0.52
4371 1 0.51 0.68 0.52
4372 2 0.51 0.6837 0.52
4373 1 0.52 0.68 0.52
4374 2 0.52 0.6837 0.52
4375 1 0.53 0.68 0.52
4376 2 0.53 0.6837 0.52
4377 1 0.54 0.68 0.52
4378 2 0.54 0.6837 0.52
4379 1 0.55 0.68 0.52
4380 2 0.55 0.6837 0.52
4381 1 0.56 0.68 0.52
4382 2 0.56 0.6837 0.52
4383 1 0.57 0.68 0.52
4384 2 0.57 0.6837 0.52
4385 1 0.58 0.68 0.52
4386 2 0.58 0.6837 0.52
4387 1 0.59 0.68 0.52
4388 2 0.59 0.6837 0.52
4389 1 0.6 0.68 0.52
4390 2 0.6 0.6837 0.52
4391 1 0.61 0.68 0.52
4392 2 0.61 0.6837 0.52
4393 1 0.62 0.68 0.52
4394 2 0.62 0.6837 0.52
4395 1 0.63 0.68 0.52
4396 2 0.63 0.6837 0.52
4397 1 0.64 0.68 0.52
4398 2 0.64 0.6837 0.52
4399 1 0.65 0.68 0.52
4400 2 0.65 0.6837 0.52
4401 1 0.66 0.68 0.52
4402 2 0.66 0.6837 0.52
4403 1 0.67 0.68 0.52
4404 2 0.67 0.6837 0.52
4405 1 0.68 0.68 0.52
4406 2 0.68 0.6837 0.52
4407 1 0.69 0.68 0.52
4408 2 0.69 0.6837 0.52
4409 1 0.7 0.68 0.52
4410 2 0.7 0.6837 0.52
4411 1 0.71 0.68 0.52
4412 2 0.71 0.6837 0.52
4413 1 0.72 0.68 0.52
4414 2 0.72 0.6837 0.52
4415 1 0.73 0.68 0.52
4416 2 0.73 0.6837 0.52
97 1 0.5 0.5 0.54
98 2 0.5 0.5037 0.54
99 1 0.51 0.5 0.54
100 2 0.51 0.5037 0.54
101 1 0.52 0.5 0.54
102 2 0.52 0.5037 0.54
103 1 0.53 0.5 0.54
104 2 0.53 0.5037 0.54
105 1 0.54 0.5 0.54
106 2 0.54 0.5037 0.54
107 1 0.55 0.5 0.54
108 2 0.55 0.5037 0.54
109 1 0.56 0.5 0.54
110 2 0.56 0.5037 0.54
111 1 0.57 0.5 0.54
112 2 0.57 0.5037 0.54
113 1 0.58 0.5 0.54
114 2 0.58 0.5037 0.54
115 1 0.59 0.5 0.54
116 2 0.59 0.5037 0.54
117 1 0.6 0.5 0.54
118 2 0.6 0.5037 0.54
119 1 0.61 0.5 0.54
120 2 0.61 0.5037 0.54
121 1 0.62 0.5 0.54
122 2 0.62 0.5037 0.54
123 1 0.63 0.5 0.54
124 2 0.63 0.5037 0.54
125 1 0.64 0.5 0.54
126 2 0.64 0.5037 0.54
127 1 0.65 0.5 0.54
128 2 0.65 0.5037 0.54
129 1 0.66 0.5 0.54
130 2 0.66 0.5037 0.54
131 1 0.67 0.5 0.54
132 2 0.67 0.5037 0.54
133 1 0.68 0.5 0.54
134 2 0.68 0.5037 0.54
135 1 0.69 0.5 0.54
136 2 0.69 0.5037 0.54
137 1 0.7 0.5 0.54
138 2 0.7 0.5037 0.54
139 1 0.71 0.5 0.54
140 2 0.71 0.5037 0.54
141 1 0.72 0.5 0.54
142 2 0.72 0.5037 0.54
143 1 0.73 0.5 0.54
144 2 0.73 0.5037 0.54
577 1 0.5 0.52 0.54
579 1 0.51 0.52 0.54
581 1 0.52 0.52 0.54
583 1 0.53 0.52 0.54
585 1 0.54 0.52 0.54
587 1 0.55 0.52 0.54
589 1 0.56 0.52 0.54
591 1 0.57 0.52 0.54
593 1 0.58 0.52 0.54
595 1 0.59 0.52 0.54
597 1 0.6 0.52 0.54
599 1 0.61 0.52 0.54
601 1 0.62 0.52 0.54
603 1 0.63 0.52 0.54
605 1 0.64 0.52 0.54
607 1 0.65 0.52 0.54
609 1 0.66 0.52 0.54
611 1 0.67 0.52 0.54
613 1 0.68 0.52 0.54
615 1 0.69 0.52 0.54
617 1 0.7 0.52 0.54
619 1 0.71 0.52 0.54
621 1 0.72 0.52 0.54
623 1 0.73 0.52 0.54
578 2 0.5 0.5237 0.54
580 2 0.51 0.5237 0.54
582 2 0.52 0.5237 0.54
584 2 0.53 0.5237 0.54
586 2 0.54 0.5237 0.54
588 2 0.55 0.5237 0.54
590 2 0.56 0.5237 0.54
592 2 0.57 0.5237 0.54
594 2 0.58 0.5237 0.54
596 2 0.59 0.5237 0.54
598 2 0.6 0.5237 0.54
600 2 0.61 0.5237 0.54
602 2 0.62 0.5237 0.54
604 2 0.63 0.5237 0.54
606 2 0.64 0.5237 0.54
608 2 0.65 0.5237 0.54
610 2 0.66 0.5237 0.54
612 2 0.67 0.5237 0.54
614 2 0.68 0.5237 0.54
616 2 0.69 0.5237 0.54
618 2 0.7 0.5237 0.54
620 2 0.71 0.5237 0.54
622 2 0.72 0.5237 0.54
624 2 0.73 0.5237 0.54
1057 1 0.5 0.54 0.54
1058 2 0.5 0.5437 0.54
1059 1 0.51 0.54 0.54
1060 2 0.51 0.5437 0.54
1061 1 0.52 0.54 0.54
1062 2 0.52 0.5437 0.54
1063 1 0.53 0.54 0.54
1064 2 0.53 0.5437 0.54
1065 1 0.54 0.54 0.54
1066 2 0.54 0.5437 0.54
1067 1 0.55 0.54 0.54
1068 2 0.55 0.5437 0.54
1069 1 0.56 0.54 0.54
1070 2 0.56 0.5437 0.54
1071 1 0.57 0.54 0.54
1072 2 0.57 0.5437 0.54
1073 1 0.58 0.54 0.54
1074 2 0.58 0.5437 0.54
1075 1 0.59 0.54 0.54
1076 2 0.59 0.5437 0.54
1077 1 0.6 0.54 0.54
1078 2 0.6 0.5437 0.54
1079 1 0.61 0.54 0.54
1080 2 0.61 0.5437 0.54
1081 1 0.62 0.54 0.54
1082 2 0.62 0.5437 0.54
1083 1 0.63 0.54 0.54
1084 2 0.63 0.5437 0.54
1085 1 0.64 0.54 0.54
1086 2 0.64 0.5437 0.54
1087 1 0.65 0.54 0.54
1088 2 0.65 0.5437 0.54
1089 1 0.66 0.54 0.54
1090 2 0.66 0.5437 0.54
1091 1 0.67 0.54 0.54
1092 2 0.67 0.5437 0.54
1093 1 0.68 0.54 0.54
1094 2 0.68 0.5437 0.54
1095 1 0.69 0.54 0.54
1096 2 0.69 0.5437 0.54
1097 1 0.7 0.54 0.54
1098 2 0.7 0.5437 0.54
1099 1 0.71 0.54 0.54
1100 2 0.71 0.5437 0.54
1101 1 0.72 0.54 0.54
1102 2 0.72 0.5437 0.54
1103 1 0.73 0.54 0.54
1104 2 0.73 0.5437 0.54
1537 1 0.5 0.56 0.54
1538 2 0.5 0.5637 0.54
1539 1 0.51 0.56 0.54
1540 2 0.51 0.5637 0.54
1541 1 0.52 0.56 0.54
1542 2 0.52 0.5637 0.54
1543 1 0.53 0.56 0.54
1544 2 0.53 0.5637 0.54
1545 1 0.54 0.56 0.54
1546 2 0.54 0.5637 0.54
1547 1 0.55 0.56 0.54
1548 2 0.55 0.5637 0.54
1549 1 0.56 0.56 0.54
1550 2 0.56 0.5637 0.54
1551 1 0.57 0.56 0.54
1552 2 0.57 0.5637 0.54
1553 1 0.58 0.56 0.54
1554 2 0.58 0.5637 0.54
1555 1 0.59 0.56 0.54
1556 2 0.59 0.5637 0.54
1557 1 0.6 0.56 0.54
1558 2 0.6 0.5637 0.54
1559 1 0.61 0.56 0.54
1560 2 0.61 0.5637 0.54
1561 1 0.62 0.56 0.54
1562 2 0.62 0.5637 0.54
1563 1 0.63 0.56 0.54
1564 2 0.63 0.5637 0.54
1565 1 0.64 0.56 0.54
1566 2 0.64 0.5637 0.54
1567 1 0.65 0.56 0.54
1568 2 0.65 0.5637 0.54
1569 1 0.66 0.56 0.54
1570 2 0.66 0.5637 0.54
1571 1 0.67 0.56 0.54
1572 2 0.67 0.5637 0.54
1573 1 0.68 0.56 0.54
1574 2 0.68 0.5637 0.54
1575 1 0.69 0.56 0.54
1576 2 0.69 0.5637 0.54
1577 1 0.7 0.56 0.54
1578 2 0.7 0.5637 0.54
1579 1 0.71 0.56 0.54
1580 2 0.71 0.5637 0.54
1581 1 0.72 0.56 0.54
1582 2 0.72 0.5637 0.54
1583 1 0.73 0.56 0.54
1584 2 0.73 0.5637 0.54
2017 1 0.5 0.58 0.54
2019 1 0.51 0.58 0.54
2021 1 0.52 0.58 0.54
2023 1 0.53 0.58 0.54
2025 1 0.54 0.58 0.54
2027 1 0.55 0.58 0.54
2029 1 0.56 0.58 0.54
2031 1 0.57 0.58 0.54
2033 1 0.58 0.58 0.54
2035 1 0.59 0.58 0.54
2037 1 0.6 0.58 0.54
2039 1 0.61 0.58 0.54
2041 1 0.62 0.58 0.54
2043 1 0.63 0.58 0.54
2045 1 0.64 0.58 0.54
2047 1 0.65 0.58 0.54
2049 1 0.66 0.58 0.54
2051 1 0.67 0.58 0.54
2053 1 0.68 0.58 0.54
2055 1 0.69 0.58 0.54
2057 1 0.7 0.58 0.54
2059 1 0.71 0.58 0.54
2061 1 0.72 0.58 0.54
2063 1 0.73 0.58 0.54
2018 2 0.5 0.5837 0.54
2020 2 0.51 0.5837 0.54
2022 2 0.52 0.5837 0.54
2024 2 0.53 0.5837 0.54
2026 2 0.54 0.5837 0.54
2028 2 0.55 0.5837 0.54
2030 2 0.56 0.5837 0.54
2032 2 0.57 0.5837 0.54
2034 2 0.58 0.5837 0.54
2036 2 0.59 0.5837 0.54
2038 2 0.6 0.5837 0.54
2040 2 0.61 0.5837 0.54
2042 2 0.62 0.5837 0.54
2044 2 0.63 0.5837 0.54
2046 2 0.64 0.5837 0.54
2048 2 0.65 0.5837 0.54
2050 2 0.66 0.5837 0.54
2052 2 0.67 0.5837 0.54
2054 2 0.68 0.5837 0.54
2056 2 0.69 0.5837 0.54
2058 2 0.7 0.5837 0.54
2060 2 0.71 0.5837 0.54
2062 2 0.72 0.5837 0.54
2064 2 0.73 0.5837 0.54
2497 1 0.5 0.6 0.54
2498 2 0.5 0.6037 0.54
2499 1 0.51 0.6 0.54
2500 2 0.51 0.6037 0.54
2501 1 0.52 0.6 0.54
2502 2 0.52 0.6037 0.54
2503 1 0.53 0.6 0.54
2504 2 0.53 0.6037 0.54
2505 1 0.54 0.6 0.54
2506 2 0.54 0.6037 0.54
2507 1 0.55 0.6 0.54
2508 2 0.55 0.6037 0.54
2509 1 0.56 0.6 0.54
2510 2 0.56 0.6037 0.54
2511 1 0.57 0.6 0.54
2512 2 0.57 0.6037 0.54
2513 1 0.58 0.6 0.54
2514 2 0.58 0.6037 0.54
2515 1 0.59 0.6 0.54
2516 2 0.59 0.6037 0.54
2517 1 0.6 0.6 0.54
2518 2 0.6 0.6037 0.54
2519 1 0.61 0.6 0.54
2520 2 0.61 0.6037 0.54
2521 1 0.62 0.6 0.54
2522 2 0.62 0.6037 0.54
2523 1 0.63 0.6 0.54
2524 2 0.63 0.6037 0.54
2525 1 0.64 0.6 0.54
2526 2 0.64 0.6037 0.54
2527 1 0.65 0.6 0.54
2528 2 0.65 0.6037 0.54
2529 1 0.66 0.6 0.54
2530 2 0.66 0.6037 0.54
2531 1 0.67 0.6 0.54
2532 2 0.67 0.6037 0.54
2533 1 0.68 0.6 0.54
2534 2 0.68 0.6037 0.54
2535 1 0.69 0.6 0.54
2536 2 0.69 0.6037 0.54
2537 1 0.7 0.6 0.54
2538 2 0.7 0.6037 0.54
2539 1 0.71 0.6 0.54
2540 2 0.71 0.6037 0.54
2541 1 0.72 0.6 0.54
2542 2 0.72 0.6037 0.54
2543 1 0.73 0.6 0.54
2544 2 0.73 0.6037 0.54
2977 1 0.5 0.62 0.54
2978 2 0.5 0.6237 0.54
2979 1 0.51 0.62 0.54
2980 2 0.51 0.6237 0.54
2981 1 0.52 0.62 0.54
2982 2 0.52 0.6237 0.54
2983 1 0.53 0.62 0.54
2984 2 0.53 0.6237 0.54
2985 1 0.54 0.62 0.54
2986 2 0.54 0.6237 0.54
2987 1 0.55 0.62 0.54
2988 2 0.55 0.6237 0.54
2989 1 0.56 0.62 0.54
2990 2 0.56 0.6237 0.54
2991 1 0.57 0.62 0.54
2992 2 0.57 0.6237 0.54
2993 1 0.58 0.62 0.54
2994 2 0.58 0.6237 0.54
2995 1 0.59 0.62 0.54
2996 2 0.59 0.6237 0.54
2997 1 0.6 0.62 0.54
2998 2 0.6 0.6237 0.54
2999 1 0.61 0.62 0.54
3000 2 0.61 0.6237 0.54
3001 1 0.62 0.62 0.54
3002 2 0.62 0.6237 0.54
3003 1 0.63 0.62 0.54
3004 2 0.63 0.6237 0.54
3005 1 0.64 0.62 0.54
3006 2 0.64 0.6237 0.54
3007 1 0.65 0.62 0.54
3008 2 0.65 0.6237 0.54
3009 1 0.66 0.62 0.54
3010 2 0.66 0.6237 0.54
3011 1 0.67 0.62 0.54
3012 2 0.67 0.6237 0.54
3013 1 0.68 0.62 0.54
3014 2 0.68 0.6237 0.54
3015 1 0.69 0.62 0.54
3016 2 0.69 0.6237 0.54
3017 1 0.7 0.62 0.54
3018 2 0.7 0.6237 0.54
3019 1 0.71 0.62 0.54
3020 2 0.71 0.6237 0.54
3021 1 0.72 0.62 0.54
3022 2 0.72 0.6237 0.54
3023 1 0.73 0.62 0.54
3024 2 0.73 0.6237 0.54
3457 1 0.5 0.64 0.54
3459 1 0.51 0.64 0.54
3461 1 0.52 0.64 0.54
3463 1 0.53 0.64 0.54
3465 1 0.54 0.64 0.54
3467 1 0.55 0.64 0.54
3469 1 0.56 0.64 0.54
3471 1 0.57 0.64 0.54
3473 1 0.58 0.64 0.54
3475 1 0.59 0.64 0.54
3477 1 0.6 0.64 0.54
3479 1 0.61 0.64 0.54
3481 1 0.62 0.64 0.54
3483 1 0.63 0.64 0.54
3485 1 0.64 0.64 0.54
3487 1 0.65 0.64 0.54
3489 1 0.66 0.64 0.54
3491 1 0.67 0.64 0.54
3493 1 0.68 0.64 0.54
3495 1 0.69 0.64 0.54
3497 1 0.7 0.64 0.54
3499 1 0.71 0.64 0.54
3501 1 0.72 0.64 0.54
3503 1 0.73 0.64 0.54
3458 2 0.5 0.6437 0.54
3460 2 0.51 0.6437 0.54
3462 2 0.52 0.6437 0.54
3464 2 0.53 0.6437 0.54
3466 2 0.54 0.6437 0.54
3468 2 0.55 0.6437 0.54
3470 2 0.56 0.6437 0.54
3472 2 0.57 0.6437 0.54
3474 2 0.58 0.6437 0.54
3476 2 0.59 0.6437 0.54
3478 2 0.6 0.6437 0.54
3480 2 0.61 0.6437 0.54
3482 2 0.62 0.6437 0.54
3484 2 0.63 0.6437 0.54
3486 2 0.64 0.6437 0.54
3488 2 0.65 0.6437 0.54
3490 2 0.66 0.6437 0.54
3492 2 0.67 0.6437 0.54
3494 2 0.68 0.6437 0.54
3496 2 0.69 0.6437 0.54
3498 2 0.7 0.6437 0.54
3500 2 0.71 0.6437 0.54
3502 2 0.72 0.6437 0.54
3504 2 0.73 0.6437 0.54
3937 1 0.5 0.66 0.54
3938 2 0.5 0.6637 0.54
3939 1 0.51 0.66 0.54