LAMMPS (4 May 2022)
OMP_NUM_THREADS environment is not set. Defaulting to 1 thread. (src/comm.cpp:98)
  using 1 OpenMP thread(s) per MPI task
Reading data file ...
  orthogonal box = (0 0 0) to (529 529 529)
  4 by 4 by 8 MPI processor grid
  reading atoms ...
  4800 atoms
  scanning bonds ...
  2 = max bonds/atom
  scanning angles ...
  1 = max angles/atom
  reading bonds ...
  4700 bonds
  reading angles ...
  2300 angles
Finding 1-2 1-3 1-4 neighbors ...
  special bond factors lj:    0        0        0       
  special bond factors coul:  0        0        0       
     3 = max # of 1-2 neighbors
     4 = max # of 1-3 neighbors
     8 = max # of 1-4 neighbors
    11 = max # of special neighbors
  special bonds CPU = 0.078 seconds
  read_data CPU = 0.234 seconds
Generated 0 of 1 mixed pair_coeff terms from geometric mixing rule
Neighbor list info ...
  update every 1 steps, delay 1 steps, check yes
  max neighbors/atom: 2000, page size: 100000
  master list distance cutoff = 7.838
  ghost atom cutoff = 7.838
  binsize = 3.919, bins = 135 135 135
  1 neighbor lists, perpetual/occasional/extra = 1 0 0
  (1) pair lj/cut, perpetual
      attributes: half, newton on
      pair build: half/bin/newton
      stencil: half/bin/3d
      bin: standard
Setting up Verlet run ...
  Unit style    : real
  Current step  : 0
  Time step     : 0.1
WARNING: Communication cutoff 7.837999999999999 is shorter than a bond length based estimate of 9.835. This may lead to errors. (src/comm.cpp:727)
Per MPI rank memory allocation (min/avg/max) = 5.853 | 5.879 | 7.256 Mbytes
   Step          Temp          E_pair         E_mol          TotEng         Press     
         0   236.51         0              1.1585817e-21  3383.2537      1.0447212    
      1000   207.57242      0              617.91484      3587.2191     -0.026990309  
      2000   223.10428      0              715.79061      3907.2767     -2.6556529    
      3000   226.65218      0              1008.4736      4250.712      -6.3943179    
      4000   204.79981      0              1655.3941      4585.0364     -9.5126309    
      5000   217.96521      0              1812.644       4930.6162     -9.9431666    
      6000   223.77169      0              1940.5927      5141.6261     -7.889864     
      7000   235.31188      0              1603.7794      4969.8941     -4.7205529    
      8000   221.07236      0              1469.844       4632.2636     -2.5202739    
      9000   200.25882      0              1491.4788      4356.1626     -1.918592     
     10000   225.84323     -0.011208798    1131.8427      4362.498      -2.1558379    
     11000   224.75992     -0.014373091    1231.7031      4446.8585     -2.7569773    
     12000   236.13456      0.0042843038   1159.9632      4537.8504     -3.0917917    
     13000   257.75614      0.13877412     852.49248      4539.809      -2.8152686    
     14000   246.21869      0.4340933      893.16001      4415.7296     -1.914849     
     15000   254.17179      1.2889138      732.03855      4369.2314     -0.68681359   
     16000   259.50897      2.0662312      683.36512      4397.6831      0.63803482   
     17000   258.49803      3.1070645      752.14982      4453.0472      1.286129     
     18000   259.90451      5.3514663      753.96097      4477.2225      0.91634305   
     19000   240.10057      8.1005629      971.4825       4414.1995     -0.2846718    
     20000   237.22051      9.6757474      999.25291      4402.346      -1.3012724    
     21000   228.48659      9.4903766      1175.9457      4453.9155     -1.3324036    
     22000   218.11596      8.6465827      1383.7323      4512.5075     -0.64401819   
     23000   223.60556      7.5483398      1307.9721      4514.1772      0.43701039   
     24000   208.71186      6.6533077      1432.2341      4424.4913      1.2355026    
     25000   209.08049      5.4307413      1397.108       4393.4158      1.1333987    
     26000   222.82727      4.7818937      1256.8361      4449.1415      0.66544177   
     27000   227.82603      5.2628147      1238.0717      4502.3647      0.2920433    
     28000   238.68999      7.2884823      1089.3829      4511.1097      0.24052806   
     29000   245.20697      9.6485204      944.0757       4461.3872      0.5716078    
     30000   246.66437      10.699687      865.84954      4405.0602      0.91895765   
     31000   259.77165      11.817246      732.71628      4460.543       1.2924901    
     32000   260.55773      12.457866      779.47652      4519.1887      1.5925636    
     33000   263.11891      15.108733      742.84262      4521.843       1.1507983    
     34000   254.25533      13.775084      820.03645      4470.9105      0.81285277   
     35000   238.73694      15.414259      997.59491      4428.119       0.70114755   
     36000   235.82533      16.514121      1082.0675      4472.0412      0.37970055   
     37000   228.77998      16.384253      1249.7018      4538.7625      0.59969343   
     38000   221.67966      17.106772      1333.3549      4521.5687      0.59007286   
     39000   216.58409      18.524876      1362.0312      4478.7715      0.23268926   
     40000   210.94593      18.006342      1443.2963      4478.8647     -0.30202279   
     41000   216.95133      19.447721      1377.4739      4500.3902     -0.38631807   
     42000   219.26311      19.692515      1339.4172      4495.6483      0.10478623   
     43000   225.19933      17.095416      1248.0348      4486.5858      0.39717806   
     44000   236.83013      15.136322      1052.0542      4455.0237     -0.094265429  
     45000   241.22225      17.223964      984.06917      4451.955      -0.5935858    
     46000   254.87197      17.2051        863.82494      4526.95       -0.23670147   
     47000   260.53607      17.784247      814.2746       4559.0032      0.35231391   
     48000   255.8672       20.717418      818.89592      4499.7699      0.40748808   
     49000   255.88471      21.735603      759.17786      4441.3205      0.31093749   
     50000   247.09041      19.445522      901.58539      4455.6364     -0.053276685  
     51000   245.70329      17.447783      966.03734      4498.2479     -0.088555581  
     52000   237.80158      14.296652      1103.5927      4519.6189      0.052643144  
     53000   228.74213      14.366704      1234.0092      4520.5108      0.32686922   
     54000   220.78619      15.541891      1303.0457      4476.9136      0.15363354   
     55000   211.27046      14.763869      1389.2609      4426.2292      0.2987132    
     56000   213.69022      12.967959      1423.9443      4493.7311      0.43678947   
     57000   221.25003      13.199021      1388.5725      4566.7328      0.39341192   
     58000   221.3369       13.606727      1345.573       4525.3835      0.63430885   
     59000   226.94172      13.807593      1225.4803      4485.6682      0.82677849   
     60000   235.11664      14.736649      1106.5201      4484.5785      0.87417844   
     61000   243.94016      16.236553      1025.1835      4530.9614      0.86611323   
     62000   258.0025       17.852034      912.15542      4620.7094      1.1865255    
     63000   255.9343       20.54407       872.57163      4554.2322      1.4074037    
     64000   258.16829      23.018202      786.55097      4502.6427      1.2007102    
     65000   254.67524      19.658642      828.95836      4491.7228      0.94793213   
     66000   251.33464      17.871906      906.84529      4520.036       0.95527682   
     67000   250.94238      17.795706      977.15624      4584.6595      0.95105424   
     68000   239.13163      18.413623      1141.4719      4580.6414      0.67725089   
     69000   228.37165      18.036923      1186.7365      4471.6087      0.55044768   
     70000   221.06233      18.357609      1282.518       4463.1518      0.44655584   
     71000   217.99949      18.813066      1379.9224      4517.198       0.10753341   
     72000   218.76877      18.136351      1408.0495      4555.6527      0.34434004   
     73000   219.87412      16.177859      1362.909       4524.3658      0.048581797  
     74000   218.06835      14.601876      1284.7556      4418.805      -0.052612442  
     75000   224.8295       16.86005       1198.1112      4431.1364     -0.12140112   
     76000   232.64171      18.228458      1138.4089      4484.5555     -0.063425628  
     77000   245.25649      16.797701      1023.7076      4548.8767      0.034345142  
     78000   251.4953       16.648952      936.58952      4550.8555      0.12076358   
     79000   251.89619      16.686754      867.78658      4487.825      -0.089708209  
     80000   251.96914      17.426718      827.19905      4449.021      -0.057616071  
     81000   256.57408      18.194668      848.19088      4536.6539     -0.042659965  
     82000   254.74439      18.982813      923.13518      4586.213       0.12392388   
     83000   244.85971      14.707103      1014.206       4531.6085      0.14580452   
     84000   235.63786      14.974862      1100.9549      4486.7075      0.27487285   
     85000   229.64307      15.920851      1189.0077      4489.9514      0.12278301   
     86000   228.16575      18.455975      1293.4954      4575.8413      0.032667115  
     87000   222.71452      19.404408      1396.3461      4601.6611      0.11140047   
     88000   218.22649      19.09857       1398.8252      4539.6336      0.30889391   
     89000   219.9352       21.254309      1346.2017      4513.6087      0.71001806   
     90000   220.15731      19.993724      1331.8968      4501.2203      0.61962001   
     91000   229.95988      19.95707       1235.9131      4545.4251      0.8807636    
     92000   240.16302      20.993896      1172.4993      4629.003       0.79682166   
     93000   246.27458      20.787997      1059.204       4602.9271      0.95608712   
     94000   248.26692      20.838895      927.59192      4499.8661      0.72145192   
     95000   248.08249      20.058122      918.26368      4487.1189      1.3216736    
     96000   256.09711      20.036575      864.73524      4548.2172      1.1304242    
     97000   255.15323      19.713556      906.07473      4575.7317      1.3602717    
     98000   248.28146      19.561538      944.97685      4516.1816      1.2268666    
     99000   239.39016      18.389283      1004.7991      4447.6425      0.65890063   
    100000   234.29271      20.681712      1127.333       4499.5503      0.49203761   
    101000   232.2309       19.994752      1203.5457      4545.582       0.52995316   
    102000   224.68462      21.191646      1309.3658      4544.6501      0.5940571    
    103000   221.04598      22.161165      1345.3892      4529.5927      0.83344567   
    104000   216.71341      20.57047       1341.1839      4461.8197      0.37139518   
    105000   212.54034      21.484374      1376.6328      4438.487      -0.13888909   
    106000   225.51738      24.304214      1295.0613      4545.3708     -0.39379193   
    107000   230.48744      26.762877      1241.4254      4565.2897      0.073915319  
    108000   235.60458      27.890333      1151.9571      4550.1492      0.41445995   
    109000   240.05593      27.99494       1050.0902      4512.0631      0.24016844   
    110000   241.88736      29.316997      994.01121      4483.5045     -0.31533284   
    111000   251.48353      30.588564      923.75778      4551.795       0.12302647   
    112000   255.44761      32.218554      926.45601      4612.829      -0.20447935   
    113000   252.86389      32.191086      929.54125      4578.9269      0.0049257087 
    114000   248.35059      32.838647      939.16669      4524.6376      0.2620595    
    115000   239.55942      37.425808      1055.485       4519.7861      0.32849618   
    116000   238.61449      39.229428      1109.3297      4561.9174      0.15830903   
    117000   230.72082      41.066521      1223.8768      4565.3833      0.19296758   
    118000   225.91626      39.659995      1289.7678      4561.139      -0.0032185723 
    119000   224.09593      39.362585      1332.3366      4577.3707      0.13855743   
    120000   221.59499      41.538209      1367.6746      4579.1086      0.38111424   
    121000   219.59936      41.095804      1362.892       4545.3363      0.8345495    
    122000   223.09075      40.644531      1289.2613      4521.1983      0.9800616    
    123000   229.19569      40.449054      1226.7201      4545.7924      0.29840626   
    124000   238.65782      40.492928      1171.8794      4626.3503      0.62173541   
    125000   244.09545      44.788061      1080.4189      4616.9698      0.91351926   
    126000   245.42665      43.882203      979.25265      4533.9404      1.1877169    
    127000   248.08316      40.692623      933.68006      4523.1793      1.4711696    
    128000   251.56014      40.406675      917.80409      4556.7553      1.085978     
    129000   253.20043      40.528743      928.56109      4591.0985      1.0971401    
    130000   246.37097      39.479774      1002.5887      4566.3824      0.92578049   
    131000   238.73838      44.723941      1022.0945      4481.9489      1.1625989    
    132000   233.30247      50.029639      1107.3092      4494.7091      0.86444754   
    133000   231.70776      50.084666      1224.0815      4588.7242      0.75823191   
    134000   229.34771      52.337642      1270.6439      4603.7793      0.90162531   
    135000   220.5514       52.939419      1361.6761      4569.5829      0.17798038   
    136000   222.24319      53.194816      1326.4055      4558.7686      0.5255386    
    137000   219.48209      47.752558      1364.9976      4552.4211      0.31710957   
    138000   227.46076      41.969554      1314.4179      4610.1926      0.038756378  
    139000   234.59373      41.918315      1236.706       4634.4659      0.18650751   
    140000   232.09579      50.868872      1178.3916      4549.3692     -0.052215911  
    141000   237.22023      59.736157      1079.3163      4532.466       0.25617248   
    142000   245.69977      61.271457      1004.1127      4580.0967     -0.074058286  
    143000   249.02417      64.597059      979.39456      4606.2593     -0.0084366407 
    144000   252.32474      63.131058      946.94814      4619.5612      0.50914859   
    145000   248.81071      70.149289      974.69168      4604.0551      0.22260636   
    146000   244.75459      63.095013      1008.1662      4572.4529     -0.057682921  
    147000   239.8422       61.790078      1050.8012      4543.5117     -0.10370803   
    148000   236.72879      61.614702      1150.1847      4598.1828      0.19455095   
    149000   234.92201      59.20561       1238.7987      4658.5419      0.5444785    
    150000   229.69815      64.703268      1284.3286      4634.8427      0.21985459   
    151000   220.58946      71.233137      1328.9223      4555.6672      0.12556909   
    152000   220.74977      68.990983      1343.0619      4569.858       0.43840376   
    153000   222.72334      72.873931      1345.0172      4603.9278      0.73729809   
    154000   226.04484      75.746665      1323.6671      4632.9643      0.68743025   
    155000   232.05446      84.689459      1262.2687      4666.4758      0.80693738   
    156000   235.86104      82.671746      1201.9315      4658.5736      1.0039828    
    157000   237.78235      80.333822      1094.8867      4576.6751      0.75966266   
    158000   241.74339      78.30799       1028.7504      4565.1752      1.6008299    
    159000   248.34946      81.853524      1020.007       4654.4766      1.3096627    
    160000   252.22359      87.363911      980.13996      4675.5389      1.1043016    
    161000   248.02436      91.643767      1003.3511      4642.9603      1.1085315    
    162000   246.00813      96.504968      1015.3344      4630.9629      1.0817649    
    163000   241.73358      98.709812      1096.7221      4653.4084      1.3591421    
    164000   241.57153      101.43525      1183.4541      4740.5477      1.0009433    
    165000   238.40601      109.22202      1209.7692      4729.3672      1.0507226    
    166000   225.93055      123.06296      1305.3342      4660.3127      0.6704233    
    167000   223.89304      120.08629      1352.3048      4675.1603      0.37072379   
    168000   224.5356       112.3865       1383.0726      4707.4202      0.54019524   
    169000   224.13644      114.64239      1378.094       4698.9874      0.66770154   
    170000   223.97561      116.31561      1286.6444      4606.9104      0.23499727   
    171000   227.76258      113.07267      1237.0432      4608.2385      0.28839798   
    172000   234.27473      118.24479      1222.7387      4692.2618     -0.0031125566 
    173000   241.23253      123.95102      1142.6883      4717.4484      0.17698855   
    174000   243.08545      117.13917      1094.0847      4688.5388      0.082484042  
    175000   245.13485      116.19982      1030.4638      4653.295       0.38985694   
    176000   248.71745      108.93052      994.37866      4661.1892      0.0075416631 
    177000   251.52599      110.93122      1030.8273      4739.8144     -0.036624907  
    178000   250.23315      109.20238      1066.7628      4755.5273      0.30898571   
    179000   241.53707      108.11516      1098.4917      4661.7724     -0.029265488  
    180000   234.1229       116.28748      1175.5704      4640.9643      0.22381971   
    181000   230.96233      132.16457      1257.0461      4693.1055      0.41308668   
    182000   230.67212      125.73391      1314.0667      4739.5439      0.50396811   
    183000   226.84757      126.11906      1350.2876      4721.4402      0.24513823   
    184000   223.41889      131.58468      1357.7497      4685.3209      0.32402535   
    185000   220.31123      128.91626      1385.6009      4666.0489      0.83735247   
    186000   229.62066      119.31842      1310.834       4714.8548      0.79779499   
    187000   232.2125       115.91591      1306.196       4743.8902      0.85261184   
    188000   235.60519      113.34304      1232.194       4715.8475      0.97627368   
    189000   236.27884      123.23737      1147.9688      4651.1531      0.92857044   
    190000   241.33402      127.8537       1088.428       4668.5426      1.2994132    
    191000   249.80869      127.43172      1062.3156      4763.2376      1.3351365    
    192000   248.63428      128.17544      1074.5433      4759.4091      1.2982588    
    193000   247.28031      125.19911      1056.5476      4719.0686      1.1039977    
    194000   245.68446      118.0049       1052.9045      4685.4028      1.3442917    
    195000   241.13237      114.355        1109.3437      4673.0749      1.2708161    
    196000   239.71692      113.49307      1183.5015      4726.123       0.74065751   
    197000   238.73576      111.47809      1252.5664      4779.1375      0.7613005    
    198000   228.44134      115.02343      1322.4239      4705.2795      0.86556349   
    199000   225.19078      110.12568      1329.7381      4661.1971      0.48569715   
    200000   226.17809      110.43513      1331.0126      4676.9044      0.48399627   
    201000   225.59908      106.66139      1376.1786      4710.0139      0.29847725   
    202000   232.94597      115.13939      1357.8978      4805.3077      0.30675881   
    203000   234.07509      115.48217      1343.7268      4807.6314      0.28460729   
    204000   236.80386      113.28384      1200.4443      4701.1854      0.054522459  
    205000   236.87875      103.31709      1180.062       4671.9078     -0.039093662  
    206000   243.40899      94.50851       1111.9209      4688.3725      0.029436498  
    207000   247.53883      97.215967      1069.4397      4707.6758      0.077825547  
    208000   246.63861      105.01838      1066.0588      4699.2197      0.23459667   
    209000   243.33618      106.63767      1066.6448      4654.1841     -0.074639652  
    210000   243.93316      101.60353      1057.5818      4648.6266     -0.023642268  
    211000   246.07946      95.802055      1105.8501      4721.796      -0.051282803  
    212000   244.55329      85.470202      1156.8359      4740.6183      0.34121647   
    213000   231.87114      85.143161      1238.5844      4640.6228      0.0016220633 
    214000   228.31288      85.697394      1274.4452      4626.1371      0.50678358   
    215000   227.95487      82.788616      1325.5718      4669.2336     -0.062830276  
    216000   226.5342       86.632984      1374.7562      4701.9399      0.48915108   
    217000   228.92646      82.502367      1331.6431      4688.9172      0.17674792   
    218000   222.43514      82.802116      1315.0079      4579.7241      0.78950515   
    219000   226.24823      84.101659      1280.2207      4600.7824      0.5907712    
    220000   233.90364      83.028649      1235.8228      4664.8214      0.81977122   
    221000   239.38308      81.796818      1180.5841      4686.7338      0.66990636   
    222000   242.54969      83.412565      1122.6331      4675.6965      0.90756037   
    223000   241.06813      84.7534        1086.7098      4619.9204      0.94238819   
    224000   240.46864      78.562095      1040.0711      4558.5148      1.0024898    
    225000   245.45593      70.225353      1055.5343      4636.984       0.89523329   
    226000   246.65094      69.239151      1097.2998      4694.8578      1.0481993    
    227000   243.95656      72.387313      1113.4915      4675.6548      0.79057256   
    228000   236.51071      67.978448      1162.79        4614.0324      0.64637075   
    229000   231.98397      66.842952      1219.8645      4605.2168      0.472753     
    230000   234.83204      70.113083      1284.139       4713.5027      0.50580012   
    231000   233.53413      65.893508      1326.2647      4732.8423      0.74044517   
    232000   228.1518       61.341023      1345.3927      4670.4241      0.3099985    
    233000   226.0521       65.719009      1329.3414      4628.7147      0.13920371   
    234000   225.42518      60.061488      1338.307       4623.0548     -0.088992597  
    235000   232.6753       53.68755       1291.5228      4673.6089      0.24591624   
    236000   238.46072      54.606372      1264.4703      4730.2351      0.22628637   
    237000   238.73644      61.282528      1211.0986      4687.4838     -0.098801992  
    238000   239.35918      60.095815      1119.9326      4604.0393     -0.031611221  
    239000   241.28442      61.512798      1099.265       4612.3292     -0.028002396  
    240000   246.4508       57.898174      1084.7504      4668.1045     -0.032234991  
    241000   250.94881      52.869767      1053.1452      4695.8146      0.068523468  
    242000   241.30675      58.064046      1085.233       4595.1678     -0.093591811  
    243000   238.03326      54.99014       1097.3104      4557.3443      0.15913055   
    244000   238.77412      49.921538      1164.0401      4629.6034      0.062410461  
    245000   235.62059      48.953314      1238.8782      4658.3621     -0.38632697   
    246000   234.92925      46.897853      1248.935       4656.474       0.34884987   
    247000   224.63771      45.516373      1334.7123      4593.6504      0.15405484   
    248000   223.60792      37.519234      1309.4736      4545.6834      0.26599911   
    249000   223.99273      41.214905      1318.5839      4563.9941      0.13550793   
    250000   227.46775      40.908886      1366.1423      4660.9564      0.16487673   
    251000   234.2117       42.908312      1286.5182      4679.8032      0.81559088   
    252000   232.39993      41.421495      1252.4172      4618.2983      0.36809222   
    253000   235.1499       39.570761      1180.7394      4584.1077      0.63737326   
    254000   240.97969      41.778493      1138.2742      4627.2447      0.8613611    
    255000   247.17782      37.881859      1140.4362      4714.1739      0.79582944   
    256000   248.78363      36.640699      1072.113       4667.5805      0.77067476   
    257000   243.1096       36.641932      1086.3026      4600.6048      0.61980135   
    258000   243.71852      34.411152      1083.0428      4603.8248      0.66362069   
    259000   245.33923      34.407561      1093.0554      4637.0179      1.0657742    
    260000   239.79817      35.024302      1197.2927      4662.6076      0.80199937   
    261000   240.84407      34.46358       1215.7554      4695.471       0.23551266   
    262000   232.76156      38.362179      1261.3104      4629.3052      0.19734576   
    263000   226.298        36.886578      1301.4793      4575.5378      0.50507652   
    264000   226.05615      37.3295        1334.5589      4605.6006      0.3721611    
    265000   230.0967       41.295995      1360.0706      4692.8785      0.11786816   
    266000   232.18883      36.873133      1329.7452      4688.058      -0.10976985   
    267000   230.48561      40.753634      1308.5662      4646.3951      0.041626055  
    268000   231.58741      38.430049      1261.3957      4612.6622     -0.020011947  
    269000   235.8961       36.858854      1196.4928      4607.8236     -0.2380519    
    270000   243.16522      34.13963       1160.6983      4673.294      -0.25297692   
    271000   248.59066      36.514666      1130.6795      4723.2606      0.080075049  
    272000   246.12372      35.700505      1082.3751      4638.8527     -0.17714993   
    273000   243.10653      33.947259      1089.4264      4600.9901     -0.074027569  
    274000   244.26562      34.09299       1093.4782      4621.7683     -0.33478406   
    275000   245.47717      30.100226      1118.6051      4660.2335     -0.22350721   
    276000   242.20568      28.295345      1173.617       4666.6422      0.11030053   
    277000   234.63412      23.802978      1195.877       4576.0994     -0.1985824    
    278000   229.3688       23.032854      1245.0078      4549.1401     -0.035012155  
    279000   231.09312      21.76222       1290.8506      4618.3785     -0.13433627   
    280000   231.46672      24.443659      1316.4747      4652.0283      0.076966254  
    281000   228.53796      23.981862      1338.279       4631.4752      0.28135569   
    282000   228.67211      25.46795       1313.5691      4610.1704      0.20722192   
    283000   230.03427      24.546752      1292.1369      4607.3026      0.3968129    
    284000   236.69629      24.114264      1271.4         4681.4328      0.51642132   
    285000   244.67084      23.71631       1203.5867      4727.2968      0.34782275   
    286000   239.53616      26.642974      1178.4931      4631.6787      0.95226336   
    287000   241.77828      24.085272      1114.0826      4596.7837      0.63522525   
    288000   242.50155      23.589815      1111.814       4604.366       0.79222989   
    289000   244.96989      22.927605      1134.8228      4662.022       0.54269651   
    290000   250.30565      22.07675       1115.9157      4718.5916      0.86632104   
    291000   241.88417      23.725122      1126.5221      4610.3779      0.7260231    
    292000   238.08271      26.362213      1144.9081      4577.0214      0.67099875   
    293000   236.39565      25.589684      1211.0791      4618.2867      0.43589221   
    294000   235.55516      22.810106      1278.9427      4671.3476      0.32045393   
    295000   234.68529      22.478674      1281.8181      4661.4481      0.51510144   
    296000   224.42462      21.147405      1321.698       4553.2189     -0.0018111365 
    297000   224.8636       20.635279      1333.7989      4571.0872      0.25820863   
    298000   229.15212      18.754622      1330.9313      4627.6858     -0.22806674   
    299000   232.544        18.153256      1309.6687      4654.3423     -0.21818799   
    300000   231.69809      20.173485      1279.1323      4613.7255      0.06732266   
    301000   231.31714      22.516764      1192.1533      4523.6403     -0.30122685   
    302000   231.4003       16.971214      1155.3697      4482.5008     -0.30737363   
    303000   241.03514      18.024059      1142.7458      4608.7551     -0.28083452   
    304000   246.66166      19.34621       1109.5335      4657.3519     -0.18601944   
    305000   245.85033      16.178239      1102.3834      4635.4278     -0.25021642   
    306000   241.65923      16.594762      1103.4888      4576.9965     -0.23122241   
    307000   240.07912      14.78299       1117.958       4567.0506     -0.34767843   
    308000   243.42916      12.673208      1162.2822      4657.187      -0.16306213   
    309000   241.32246      13.794528      1221.8653      4687.7552     -0.1467934    
    310000   235.8224       13.953958      1241.5046      4628.8762     -0.039155159  
    311000   231.99173      16.765896      1265.8486      4601.2347     -0.25134841   
    312000   228.1154       20.021859      1319.1393      4602.3308      0.15162828   
    313000   231.48108      21.187684      1319.5281      4652.0313      0.25258598   
    314000   234.06276      18.885151      1349.9802      4717.1116      0.13492079   
    315000   233.05249      21.417169      1319.857       4675.0685      0.084675334  
    316000   232.25296      18.507671      1244.3159      4585.1807      0.67498221   
    317000   232.78111      19.414201      1230.1789      4579.5054      0.46481093   
    318000   242.25263      19.854416      1162.9982      4648.2541      0.67841769   
    319000   242.76533      21.365506      1170.009       4664.1101      0.73014091   
    320000   243.19561      21.451163      1116.931       4617.2729      0.51542764   
    321000   237.6077       18.30326       1095.8874      4513.1468      0.73981474   
    322000   239.86705      21.314379      1104.4093      4556.9996      0.9983412    
    323000   244.72305      20.007786      1103.5713      4624.3197      0.77962089   
    324000   241.85599      19.737214      1166.4875      4645.9522      0.16757407   
    325000   239.05256      18.915549      1199.0326      4637.5729      0.55279066   
    326000   229.31068      17.623673      1261.3021      4559.1938      0.73493974   
    327000   228.38924      15.146547      1260.0739      4542.3073      0.42285641   
    328000   232.7071       13.882327      1309.3868      4652.1226     -0.32025056   
    329000   230.09696      16.761914      1352.7506      4661.0282      0.055256441  
    330000   230.3685       16.569057      1307.6387      4619.6079      0.40414983   
    331000   226.76537      12.927446      1313.4761      4570.2612     -0.1400532    
    332000   231.08153      15.271085      1286.6618      4607.5328     -0.75902402   
    333000   240.09506      15.207763      1255.8996      4705.6449      0.1079777    
    334000   240.36746      11.122073      1220.3816      4669.9379     -0.092367638  
    335000   241.31743      10.825183      1152.078       4614.9267     -0.34597367   
    336000   241.73589      10.811413      1122.8218      4591.6428     -0.63538028   
    337000   242.69955      10.164192      1132.4275      4614.3864     -0.014118824  
    338000   250.4638       12.139531      1108.8176      4703.8185     -0.24550688   
    339000   246.67278      13.949814      1155.6279      4698.2091     -0.30900155   
    340000   238.23287      14.349788      1152.2628      4574.5117     -0.14714741   
    341000   235.46664      15.233917      1202.6799      4586.2423     -0.30379753   
    342000   234.74404      15.036217      1272.5535      4645.5815     -0.10862872   
    343000   236.79067      13.278245      1277.0942      4677.641       0.028713661  
    344000   227.67601      12.122683      1338.6518      4607.6588      0.1822105    
    345000   225.61144      12.067128      1314.0331      4553.451      -0.19594595   
    346000   228.23047      11.961584      1314.9687      4591.746       0.27027092   
    347000   229.51945      12.024071      1321.4589      4616.7376      0.2483415    
    348000   232.59846      12.016766      1290.9551      4630.2712      0.5372927    
    349000   235.37945      13.141277      1259.0408      4639.2634      0.52631113   
    350000   237.00932      14.037312      1227.0628      4631.4965      0.55380968   
    351000   240.18372      16.069298      1143.1254      4595.0007      0.71272292   
    352000   238.61759      14.530701      1137.8449      4565.7781      0.55942456   
    353000   243.94186      12.758385      1135.2961      4637.6203      0.87465045   
    354000   247.60905      12.440546      1139.8368      4694.3019      0.8647621    
    355000   243.54719      12.604674      1153.9554      4650.4801      0.45706966   
    356000   240.84542      13.53759       1159.1925      4618.0016      0.64868172   
    357000   237.02477      12.67759       1211.0911      4614.3861      0.52323619   
    358000   235.61901      15.126328      1249.3688      4635.0032      0.48117542   
    359000   236.55727      14.133228      1300.6896      4698.7527      0.39470492   
    360000   235.7245       13.703235      1340.6117      4726.3321     -0.012769603  
    361000   229.69874      13.253307      1328.6445      4627.717       0.23569624   
    362000   229.01929      12.184152      1311.2416      4599.5256     -0.018071284  
    363000   230.64619      13.583929      1305.6153      4618.5717     -0.21130045   
    364000   235.29814      14.479179      1292.3525      4672.7497     -0.0021437599 
    365000   239.58556      13.956151      1278.1586      4719.364      -0.47566693   
    366000   237.80387      13.362806      1234.095       4649.2202     -0.16890452   
    367000   237.96837      12.528531      1166.2977      4582.9417     -0.52299089   
    368000   241.08928      12.364303      1140.2871      4601.4112     -0.17984802   
    369000   246.13707      7.9222687      1139.5474      4668.4376     -0.49869789   
    370000   247.03915      8.0557229      1145.5506      4687.4785     -0.51684907   
    371000   238.63827      10.169169      1149.1115      4572.979      -0.30757086   
    372000   239.2388       10.609506      1131.8114      4564.7097     -0.26388334   
    373000   237.24072      11.913872      1218.1236      4623.7441     -0.23379121   
    374000   236.99663      10.25521       1269.1988      4669.6688     -0.34654311   
    375000   233.50097      12.803008      1300.2878      4653.3006     -0.32704151   
    376000   229.61267      12.744298      1296.2688      4593.6011      0.24214075   
    377000   223.73446      11.660641      1299.949       4512.1104      0.030299951  
    378000   226.87938      12.038069      1324.8337      4582.3602      0.097619546  
    379000   230.8342       14.562507      1337.7712      4654.3956      0.05955312   
    380000   233.64566      12.400939      1306.1695      4660.8499      0.91098035   
    381000   234.63821      12.302357      1256.3156      4625.0958      0.33160114   
    382000   236.16588      12.655929      1199.8481      4590.8352      0.54300835   
    383000   240.35918      10.126905      1174.0263      4622.469       0.71015285   
    384000   244.09605      10.162597      1201.0675      4703.0014      0.77303269   
    385000   245.71434      8.4100357      1161.7455      4685.0765      0.74662043   
    386000   242.74908      8.8670411      1130.5657      4611.9359      0.96756132   
    387000   239.73613      9.8914973      1168.7602      4608.0548      0.61614128   
    388000   240.98714      10.602326      1183.0814      4640.9825      0.65072312   
    389000   239.45032      10.328958      1231.1137      4666.7573      0.48837724   
    390000   238.92931      12.765178      1234.9426      4665.5695      0.89397924   
    391000   230.23957      12.224685      1284.7074      4590.4878      0.28779887   
    392000   229.43198      10.123147      1299.9023      4592.0286      0.11829999   
    393000   233.71815      12.204066      1303.9519      4659.4724      0.10581478   
    394000   233.12482      13.596393      1342.7714      4691.1967      0.13819427   
    395000   231.68282      13.091186      1311.0652      4638.3578     -0.16133235   
    396000   227.78886      12.054001      1266.9337      4537.4863     -0.19870758   
    397000   231.79309      9.1913978      1261.0046      4585.9746     -0.1944134    
    398000   238.78842      9.6275697      1233.3113      4658.7852     -0.43498142   
    399000   241.95826      10.877639      1202.877       4674.9452     -0.62027913   
    400000   241.80955      12.29476       1156.3476      4627.7056     -0.26247376   
    401000   237.7482       10.187523      1149.7605      4560.914      -0.54247854   
    402000   240.91613      8.684605       1155.2028      4610.1703     -0.34558515   
    403000   245.34037      10.612287      1185.1932      4705.3768     -0.66223655   
    404000   241.21387      10.512497      1201.6971      4662.7518     -0.38366621   
    405000   236.7093       10.616282      1210.6821      4607.403      -0.5265797    
    406000   231.90413      11.89399       1269.7223      4598.9833     -0.18978072   
    407000   237.56075      12.82331       1275.4906      4686.5984     -0.3100585    
    408000   237.55576      13.536117      1308.4731      4720.2224     -0.13582489   
    409000   233.11677      11.268563      1319.7185      4665.7009      0.064876276  
    410000   229.65025      10.669595      1334.5208      4630.3159     -0.16573283   
    411000   229.82376      11.590079      1322.9986      4622.1963      0.60264794   
    412000   234.46429      13.68348       1278.1993      4645.8728      0.23477461   
    413000   236.62213      10.686757      1293.8172      4689.3617      0.70059923   
    414000   240.11161      10.458285      1253.4086      4698.6412      0.35927146   
    415000   238.75761      12.995909      1189.0095      4617.4109      0.75364319   
    416000   238.13604      13.334852      1167.592       4587.4408      0.94434891   
    417000   239.52375      13.106824      1189.5802      4629.0522      0.81139163   
    418000   243.79993      11.748769      1164.0788      4663.3631      0.69829396   
    419000   241.9436       10.205505      1181.6465      4652.8329      1.0515755    
    420000   240.13635      9.6542158      1185.6682      4630.4507      0.75991847   
    421000   234.46246      7.9513329      1229.2292      4591.1443      0.68983986   
    422000   234.58209      10.278881      1251.0543      4617.0083      0.65316154   
    423000   236.57394      10.643107      1300.2229      4695.0344      0.38247582   
    424000   232.55476      11.128077      1342.8908      4680.6932      0.39010839   
    425000   228.27383      10.637523      1339.5656      4615.6392      0.15764362   
    426000   228.68658      11.625811      1310.2629      4593.2291      0.25165603   
    427000   230.46499      12.007009      1316.2127      4625           0.10213038   
    428000   232.73725      11.291741      1306.1149      4646.6914     -0.52682987   
    429000   237.30954      12.505688      1244.8699      4652.0666     -0.25424753   
    430000   235.25367      12.516726      1244.0151      4621.8139      0.00098702148
    431000   237.60088      11.436163      1185.8708      4596.1656     -0.33032571   
    432000   238.46314      11.204907      1168.5463      4590.9443     -0.80532839   
    433000   241.38768      11.050369      1180.2811      4644.3599     -0.61238827   
    434000   247.37077      11.512466      1152.1205      4702.249      -0.32018401   
    435000   241.05062      10.334463      1195.8185      4654.3597     -0.33570362   
    436000   236.56818      13.444798      1179.6169      4577.1476     -0.6545608    
    437000   234.50742      14.019992      1211.1278      4579.7547     -0.59642239   
    438000   233.70008      13.097592      1266.202       4622.3576     -0.31600157   
    439000   235.09522      12.587563      1275.088       4650.6909     -0.15384478   
    440000   229.70858      13.363349      1350.9681      4650.2914     -0.60877688   
    441000   231.10593      14.9542        1329.1546      4650.0577      0.11644015   
    442000   230.02341      13.237547      1317.6575      4621.3586     -0.02310776   
    443000   228.11137      10.957153      1318.5191      4592.5882      0.30330073   
    444000   233.26853      11.061721      1282.3698      4630.3162      0.21891294   
    445000   238.43824      8.7118175      1280.0698      4699.6185      0.23353987   
    446000   239.7772       8.2613662      1245.2663      4683.5183      0.78312364   
    447000   237.20889      10.873495      1193.9151      4598.0399      0.60089729   
    448000   238.10537      11.531572      1178.6695      4596.2764      0.98136767   
    449000   241.97291      9.9243958      1168.9758      4640.3003      0.39491319   
    450000   242.93129      7.7859654      1178.3517      4661.2474      1.053062     
    451000   242.22625      8.8178277      1167.408       4641.2499      0.68833226   
    452000   235.43249      10.323742      1178.4863      4556.65        0.89960903   
    453000   235.98803      8.4798063      1192.8077      4577.0743      0.76895906   
    454000   237.46199      9.9738851      1241.2874      4648.1331      0.83852752   
    455000   235.26778      7.5518591      1286.9368      4659.9725      0.13078736   
    456000   233.93672      8.5900074      1286.0343      4641.0674      0.55826127   
    457000   230.3778       8.7934567      1301.3892      4605.7157      0.3192358    
    458000   229.32578      10.253745      1303.4249      4594.1626      0.53671635   
    459000   232.44311      13.196588      1329.3577      4667.6314     -0.1591545    
    460000   234.04474      13.167746      1340.7566      4701.9127     -0.15850912   
    461000   235.90441      12.549566      1261.4716      4648.6119     -0.023067935  
    462000   233.30346      14.896399      1232.2361      4584.5169     -0.41318371   
    463000   237.49771      15.188467      1196.3497      4608.9209     -0.098441522  
    464000   241.41325      15.244836      1179.9602      4648.5993     -0.31345463   
    465000   242.73875      11.732173      1175.474       4659.5615     -0.83011106   
    466000   241.97254      10.751368      1168.9579      4641.104      -0.22999746   
    467000   237.20192      11.123577      1170.0665      4574.3415     -0.52985293   
    468000   233.75014      9.0324471      1165.7297      4518.5363     -0.22400133   
    469000   238.62854      7.2517322      1195.6613      4616.4722     -0.60700465   
    470000   238.04357      8.6334477      1242.4332      4656.2579     -0.46456659   
    471000   236.70447      8.0173782      1265.8194      4659.8723     -0.24124215   
    472000   232.11339      7.9654348      1290.5018      4618.8278     -0.12530694   
    473000   228.76673      7.1348828      1296.7409      4576.3626     -0.21575386   
    474000   231.5288       7.6709243      1310.8233      4630.4922     -0.0857755    
    475000   236.14049      11.10043       1321.0844      4710.1527      0.075673824  
    476000   235.03974      11.552121      1296.8982      4670.6721      0.30031168   
    477000   234.80144      12.458603      1245.4441      4616.7155      0.57403402   
    478000   237.07135      10.467076      1219.9487      4621.6995      0.066721499  
    479000   239.64099      9.7446583      1211.5166      4649.3035      0.69664731   
    480000   241.06446      7.763922       1202.6531      4658.8218      0.82318238   
    481000   237.76849      6.2681048      1188.2155      4595.7399      0.90785916   
    482000   236.64953      6.4509599      1155.6946      4547.3951      0.70382389   
    483000   241.29302      6.9570603      1161.6924      4620.3237      0.5010175    
    484000   242.32387      8.5717581      1200.0805      4675.0729      1.1949665    
    485000   238.63752      8.6454571      1232.3653      4654.6984      0.81345944   
    486000   235.39563      9.3741383      1230.8323      4607.5192      0.58808596   
    487000   228.95274      11.157608      1279.9395      4566.2448      0.36896054   
    488000   229.34464      10.326267      1298.2701      4589.3502      0.6792788    
    489000   230.86842      8.0531746      1357.5244      4668.1289      0.44885629   
    490000   234.74422      9.3819929      1325.6615      4693.0379     -0.13965208   
    491000   232.341        9.3844269      1301.4723      4634.4732      0.26013075   
    492000   229.66608      11.0213        1295.7627      4592.136      -0.02001282   
    493000   235.49059      8.6160535      1260.3041      4637.5913      0.0010191104 
    494000   239.97125      9.8457127      1304.6272      4747.2394     -0.41721519   
    495000   241.05248      10.787554      1236.0366      4695.0575     -0.36247019   
    496000   239.13253      11.561671      1197.0366      4629.367      -0.071404795  
    497000   238.27459      13.84343       1177.4743      4599.8137     -0.52530931   
    498000   241.34117      11.663958      1172.2613      4636.2883     -0.46974853   
    499000   244.90082      9.5178367      1197.6186      4710.42       -0.52635616   
    500000   241.24243      6.2523054      1220.141       4677.3439     -0.51926379   
    501000   238.14189      8.3887252      1208.6966      4623.683       0.011773804  
    502000   233.29724      8.954431       1269.4664      4615.7163     -0.72637437   
    503000   236.47837      6.7251324      1259.1616      4648.688      -0.29721176   
    504000   234.72856      9.4745931      1302.388       4669.6328     -0.28208005   
    505000   234.16447      7.9262396      1309.4089      4667.0362      0.031598489  
    506000   230.68864      8.1671013      1292.4272      4600.574      -0.11515145   
    507000   229.59169      8.4312192      1305.5798      4598.2988      0.13675067   
    508000   234.26228      9.6706419      1287.1816      4647.9526      0.24659899   
    509000   236.66315      10.776597      1306.4878      4702.7089      0.3780558    
    510000   242.99291      11.096132      1257.6978      4744.7851      0.48881596   
    511000   240.44273      11.044459      1225.4648      4676.0203      0.64223659   
    512000   236.80629      10.224207      1193.7627      4591.479       0.97054359   
    513000   241.18183      7.1452576      1155.8286      4613.0577      0.56301545   
    514000   241.13536      5.2386161      1200.9864      4655.644       0.88790655   
    515000   245.13092      5.3854788      1178.7852      4690.7457      1.0846006    
    516000   238.70062      5.5244204      1199.8328      4619.9474      0.49228778   
    517000   235.01978      4.6538368      1189.9331      4556.5232      1.0379003    
    518000   235.40875      6.6400772      1231.7025      4605.843       0.62400497   
    519000   235.21151      5.7173886      1288.5693      4658.9655      0.72775694   
    520000   235.30141      9.1429546      1284.3033      4659.4111      0.076486776  
    521000   233.17808      7.7428908      1289.5466      4632.8804      0.61938642   
    522000   229.33675      7.2652595      1307.9864      4595.8926      0.53636289   
    523000   228.98374      6.5574791      1274.1212      4556.2698     -0.28757654   
    524000   230.89331      7.899604       1296.6133      4607.4203     -0.040190387  
    525000   237.80208      8.7327825      1269.4214      4679.8909      0.093762201  
    526000   239.7825       7.5365804      1231.4589      4669.062       0.082342643  
    527000   234.40813      7.2735199      1238.2795      4598.7396     -0.6592187    
    528000   236.6932       7.6909429      1190.3892      4583.9544     -0.15594643   
    529000   243.83081      7.0910829      1195.8583      4690.9265     -0.48731812   
    530000   246.0684       7.7693579      1190.2481      4718.0031     -0.20066446   
    531000   241.87394      8.5506323      1175.6043      4644.1392     -0.3865318    
    532000   236.87628      9.5706044      1205.7347      4603.7986     -0.50151031   
    533000   237.95067      11.041427      1216.4001      4631.3039     -0.45666326   
    534000   238.70234      10.854488      1271.6939      4697.1632     -0.31225147   
    535000   239.95111      14.480208      1309.2182      4756.1768     -0.20331712   
    536000   232.26049      12.000488      1301.5221      4635.9874     -0.43281408   
    537000   230.07488      11.477039      1297.0591      4599.7359      0.0080762341 
    538000   230.7819       10.468157      1320.7779      4632.5598      0.11667044   
    539000   235.70224      9.0269886      1314.6928      4695.4185     -0.13724244   
    540000   234.10082      8.2278578      1319.0923      4676.1107     -0.11801251   
    541000   232.13169      7.3819852      1254.061       4582.0653      0.73339297   
    542000   233.89567      6.58841        1227.6634      4580.1078      0.52374474   
    543000   237.09923      8.9922284      1221.4013      4622.0761      0.24813746   
    544000   241.36394      7.9171084      1206.7268      4667.3328      0.48714143   
    545000   243.28815      6.5204884      1180.1875      4666.9224      0.92084743   
    546000   238.41501      6.3897857      1160.6855      4577.5798      0.87519499   
    547000   236.97724      5.2748539      1143.6793      4538.8916      0.61120048   
    548000   238.63371      4.3870951      1186.7044      4604.7246      0.81067634   
    549000   239.02622      4.9854676      1209.7223      4633.9557      0.5899124    
    550000   237.34564      7.121221       1249.7263      4652.0549      0.85227635   
    551000   234.37001      6.3390733      1285.2473      4644.2277      0.72983422   
    552000   233.64437      7.5691519      1258.5657      4608.396       0.35877717   
    553000   230.14081      8.6094742      1277.0869      4577.8393      0.28509079   
    554000   231.92954      8.6887263      1302.7711      4629.1904      0.63070403   
    555000   235.19243      7.7442254      1330.7611      4702.9114      0.22416709   
    556000   233.974        7.9671222      1315.9032      4670.8468     -0.27857709   
    557000   232.92297      8.51204        1278.275       4618.7286     -0.1337974    
    558000   233.40038      8.2039062      1266.0595      4613.0343      0.68376425   
    559000   238.6253       9.1671939      1213.6447      4636.3248     -0.50110763   
    560000   241.1428       11.655107      1206.0495      4667.23       -0.45498593   
    561000   240.31522      8.5210508      1209.9584      4656.1665     -0.28170426   
    562000   236.20713      11.975271      1175.9698      4566.8662      0.04436422   
    563000   237.22132      9.2232808      1183.6351      4586.2874     -0.45657848   
    564000   239.01989      7.8312533      1213.2234      4640.2121     -0.57423262   
    565000   240.0593       7.6373128      1225.838       4667.5013     -0.18336072   
    566000   237.33042      7.1106444      1241.1914      4643.2917     -0.57639335   
    567000   231.27764      7.7931127      1263.4885      4579.6869      0.011159761  
    568000   226.65441      9.1431722      1256.143       4507.5565     -0.48777261   
    569000   227.8147       8.4963125      1315.4082      4582.7727     -0.13151775   
    570000   234.41988      8.5131054      1288.062       4649.9298     -0.17928125   
    571000   233.72573      7.9859335      1308.9817      4660.3926      0.40459023   
    572000   232.76816      9.0203068      1305.6485      4644.3959     -0.0092862968 
    573000   231.81055      9.1574038      1276.1695      4601.3554     -0.02562994   
    574000   233.69472      11.012527      1241.6931      4595.687       0.79283506   
    575000   237.41316      10.079443      1218.5522      4624.8049      0.49002875   
    576000   244.80731      11.229683      1183.3043      4696.4799      0.50951759   
    577000   242.12239      11.376049      1204.4867      4679.4011      0.64175432   
    578000   239.24922      11.506266      1174.5358      4608.4799      0.68325754   
    579000   237.60217      10.779488      1177.6763      4587.3329      0.89369678   
    580000   239.55825      9.5263246      1208.56        4644.945       0.59490333   
    581000   244.15393      9.9147414      1229.9097      4732.4239      1.0235339    
    582000   236.92241      12.121579      1276.792       4678.0666      0.48422856   
    583000   234.2469       11.764867      1264.8559      4627.501       0.13224059   
    584000   231.68915      13.00494       1277.1391      4604.4359      1.0708889    
    585000   232.15704      12.893596      1307.493       4641.3716      0.53337134   
    586000   237.44887      9.4685035      1318.6688      4724.8214      0.21050881   
    587000   235.53526      12.514722      1307.0679      4688.8927      0.12535799   
    588000   233.28947      13.515602      1261.3337      4612.0336      0.30012415   
    589000   233.61219      14.016334      1261.9188      4617.7359      0.094775294  
    590000   237.48152      12.695394      1245.0578      4654.9043      0.096048827  
    591000   242.13544      12.831251      1201.2454      4677.8017     -0.16933723   
    592000   238.1668       13.57241       1204.5864      4625.1129      0.11821574   
    593000   235.13015      13.232321      1185.9773      4562.7247     -0.59031919   
    594000   238.63609      11.577592      1182.5679      4607.8126     -0.21328719   
    595000   241.15117      10.854875      1203.5282      4664.0283      0.048110669  
    596000   240.16435      11.040314      1212.7994      4659.3685     -0.34058582   
    597000   237.60014      11.348506      1220.3813      4630.5778     -0.60117373   
    598000   233.69794      11.535655      1239.8626      4594.4257     -0.31911071   
    599000   236.1783       11.245098      1246.7971      4636.5509     -0.06332837   
    600000   234.11874      10.339123      1318.4478      4677.8338     -0.19084307   
    601000   235.11599      12.83203       1287.6316      4663.776      -0.3125487    
    602000   232.31598      11.835453      1283.9889      4619.083       0.027052939  
    603000   227.47841      12.350914      1298.4837      4564.8922      0.10183495   
    604000   228.87819      11.299575      1275.0141      4560.3951      0.12262902   
    605000   234.03091      10.814223      1276.8096      4635.4143      0.22614523   
    606000   239.347        10.460256      1258.0154      4692.3123      0.34754513   
    607000   238.20976      10.642566      1239.5778      4657.789       0.4266588    
    608000   235.59865      12.081465      1209.1134      4591.4116      0.56120534   
    609000   236.66459      7.3246788      1191.5925      4584.3822      0.56260342   
    610000   243.61731      8.9164042      1193.7639      4687.6034      0.74640741   
    611000   243.93962      8.0233714      1193.9192      4691.4762      0.3469655    
    612000   240.31111      7.1292237      1187.9454      4632.7027      0.94541742   
    613000   235.59817      7.9446243      1212.4184      4590.573       0.45967257   
    614000   234.93772      8.5551061      1246.8408      4616.1582      0.89618077   
    615000   238.64237      6.592672       1292.793       4713.1427      0.17590151   
    616000   238.91799      8.2521512      1304.193       4730.1449      0.904645     
    617000   230.41542      9.0386061      1294.9649      4600.0748      0.14898349   
    618000   231.76077      8.9902025      1278.0473      4602.3539      0.34461524   
    619000   233.00456      10.854751      1303.9026      4647.8661      0.37940919   
    620000   235.8915       11.189689      1302.1421      4687.7378      0.039984312  
    621000   236.01468      14.206692      1266.378       4656.7528      0.35238991   
    622000   232.10392      14.457129      1235.7222      4570.4044     -0.23730954   
    623000   234.42586      16.117015      1229.1117      4598.669      -0.15138841   
    624000   240.63564      17.4827        1207.7399      4667.4932      0.23510646   
    625000   240.57917      14.701541      1209.0378      4665.2021     -0.26657244   
    626000   239.77026      15.083383      1198.192       4643.1668     -0.22462014   
    627000   236.92887      14.525597      1198.6307      4602.4019     -0.2090876    
    628000   236.82539      12.449172      1190.7362      4590.9507      0.049717622  
    629000   241.08202      9.6501828      1214.1458      4672.4519     -0.47327417   
    630000   239.4464       8.554607       1254.476       4688.2892     -0.1720901    
    631000   234.72151      8.2038383      1261.1973      4627.0706     -0.043453475  
    632000   230.97157      9.9252458      1268.1695      4582.1216     -0.2086066    
    633000   232.59281      12.371325      1293.4689      4633.0588     -0.21697668   
    634000   236.13712      13.05925       1322.9007      4713.8797      0.20844831   
    635000   235.83134      12.399634      1289.1415      4675.0866      0.070944623  
    636000   232.35533      10.674104      1276.1643      4610.6598      0.12310816   
    637000   231.40198      11.270339      1281.175       4602.6293      0.090545082  
    638000   237.4214       14.498791      1245.6371      4656.427       0.62093185   
    639000   240.53876      13.872002      1263.3527      4718.1095      0.53228348   
    640000   245.30551      11.566898      1242.2792      4762.9187      0.33887385   
    641000   240.33674      11.881214      1213.3634      4663.2394      0.77278237   
    642000   236.86219      11.708013      1211.1037      4611.1034      0.36102439   
    643000   239.53571      12.841432      1186.7966      4626.1742      0.8344646    
    644000   240.03183      13.216306      1217.8453      4664.6946      0.72064439   
    645000   241.23156      16.361855      1226.0087      4693.1656      0.65376527   
    646000   236.69876      12.977245      1257.5356      4656.4666      0.46972502   
    647000   233.4378       13.660166      1231.5583      4584.5245      0.73753992   
    648000   232.15432      13.295538      1253.9088      4588.1504      0.45732317   
    649000   232.69209      12.645801      1319.1453      4660.4299      0.33833967   
    650000   237.08152      11.534114      1288.7829      4691.7462      0.43229448   
    651000   234.32295      12.452888      1291.0786      4655.4996      0.39537944   
    652000   232.84596      11.50739       1281.9309      4624.2783      0.039726001  
    653000   233.66408      12.893184      1269.4451      4624.8814      0.10134203   
    654000   239.30615      15.20889       1255.0175      4693.4788     -0.004035486  
    655000   243.35457      12.664715      1230.9261      4724.7554      0.23196915   
    656000   239.21418      14.065551      1219.3588      4655.361      -0.18335694   
    657000   237.36463      9.8411818      1214.5299      4619.8501      0.069792262  
    658000   239.02371      13.188153      1195.9513      4628.3514     -0.25044863   
    659000   237.87076      13.112537      1231.7162      4647.548      -0.23197521   
    660000   242.16098      11.992807      1224.4504      4700.5336     -0.099889739  
    661000   244.1077       10.802851      1228.5398      4731.2807     -0.024463594  
    662000   236.73138      11.909916      1249.7332      4648.0635     -0.67541023   
    663000   233.25087      11.939389      1244.4124      4592.9838     -0.11422017   
    664000   231.86475      12.253495      1284.8025      4613.8598      0.25105275   
    665000   234.81166      11.491186      1299.4421      4669.8923     -0.12581408   
    666000   234.51955      14.033095      1305.7098      4674.5233     -0.2819779    
    667000   227.64102      12.397636      1306.4066      4575.1879     -0.32423755   
    668000   228.7557       13.642389      1267.8374      4553.8089      0.80354031   
    669000   234.48428      12.753101      1274.7549      4641.784       0.12397502   
    670000   239.43596      14.586672      1243.908       4683.6038      0.17110657   
    671000   237.28383      13.419042      1245.6224      4653.3647      0.19707128   
    672000   236.42213      10.683314      1207.7481      4600.428       0.90405509   
    673000   233.1131       10.761193      1205.8672      4551.2898      0.22243338   
    674000   239.04496      12.556576      1182.503       4614.5755      0.69360264   
    675000   241.58139      11.427729      1222.5816      4689.8087      0.36662335   
    676000   241.53409      11.212723      1212.2552      4678.5906      1.234664     
    677000   238.57963      13.307962      1191.3995      4617.5669      0.058789188  
    678000   233.93271      12.915612      1232.6346      4591.936       0.77590011   
    679000   237.50733      10.761638      1280.4912      4688.7732      0.71561502   
    680000   238.38575      12.449925      1304.1489      4726.6849      0.5615273    
    681000   233.48917      12.366644      1287.1747      4639.5824      0.201394     
    682000   231.48863      12.907716      1288.7569      4613.0881      0.27180133   
    683000   232.3468       11.738648      1304.7005      4640.1386      0.73256489   
    684000   236.33285      12.649745      1296.5639      4689.9332      0.16078345   
    685000   239.77021      12.959897      1295.1537      4738.0043     -0.044894503  
    686000   238.30583      13.759876      1283.4352      4706.1379     -0.035784541  
    687000   235.31415      14.175739      1232.3594      4612.6822      0.020861681  
    688000   236.74558      12.897044      1204.3757      4603.8963      0.45943937   
    689000   238.98475      11.814088      1224.1698      4654.6386     -0.60625046   
    690000   240.85779      14.354716      1237.5583      4697.3614      0.061265877  
    691000   238.68068      14.62133       1227.0656      4655.992      -0.7241641    
    692000   234.82689      17.229048      1178.1985      4554.6045      0.53967916   
    693000   234.21289      14.682404      1220.7243      4585.8003     -0.23193299   
    694000   237.37629      14.76158       1252.498       4662.9055     -0.51354795   
    695000   238.60636      13.857576      1259.7306      4686.8301     -0.04207788   
    696000   234.51622      12.107843      1274.7752      4641.6159     -0.071145909  
    697000   230.44623      11.099652      1284.1141      4591.7257      0.01007633   
    698000   230.19642      10.858305      1302.0797      4605.8765     -0.01604782   
    699000   237.30823      8.7661644      1292.8256      4696.2641     -0.10120606   
    700000   236.40741      11.070729      1305.6426      4698.4995      0.27972156   
    701000   233.43613      12.347907      1277.8472      4629.4774      0.0052405721 
    702000   232.68992      13.708137      1254.6913      4597.0073      0.57101451   
    703000   236.15148      13.874435      1254.2186      4646.218       0.33409836   
    704000   243.3856       13.392424      1240.6033      4735.6043      0.34746153   
    705000   242.09181      14.157472      1227.1363      4704.3947      0.5485176    
    706000   239.77847      14.587949      1204.6272      4649.224       0.64321391   
    707000   236.99583      19.02683       1207.5256      4616.7558      0.65784733   
    708000   238.83022      20.144231      1219.0748      4655.6632      0.49136433   
    709000   243.80973      18.124945      1235.5689      4741.3695      0.75986504   
    710000   240.23278      15.840785      1256.5234      4708.8718      0.43986217   
    711000   237.00734      14.959768      1247.8511      4653.1789      0.65865352   
    712000   234.01104      15.290834      1278.7768      4641.5739      0.48360093   
    713000   235.09453      16.869249      1284.7346      4664.6094      0.56038527   
    714000   234.98421      17.73966       1307.1426      4686.3096      0.042129657  
    715000   234.74049      15.636678      1293.8771      4667.4548      0.36381203   
    716000   231.25111      17.045103      1273.4887      4598.5595      0.30083379   
    717000   233.24554      17.82645       1254.1117      4608.494       0.13323567   
    718000   236.87131      18.344008      1275.7506      4682.5168     -0.008933004  
    719000   238.74171      15.045747      1264.9772      4695.201      -0.10004393   
    720000   240.82492      14.776402      1210.1899      4669.9445      0.13233451   
    721000   236.98929      14.623739      1227.2953      4632.0289     -0.11490873   
    722000   238.45121      10.20639       1221.1419      4642.3708     -0.15660193   
    723000   240.62852      10.008329      1249.9633      4702.1403     -0.32317656   
    724000   242.82954      12.723696      1242.4205      4728.7983     -0.18114584   
    725000   238.30034      15.926175      1231.7113      4656.5018      0.085635501  
    726000   234.13516      12.938801      1248.865       4611.0856     -0.3218542    
    727000   235.36891      13.010556      1261.601       4641.542      -0.51284085   
    728000   236.88734      11.455197      1279.6075      4679.7142      0.037191088  
    729000   234.65021      15.470665      1298.9795      4671.0997      0.27220214   
    730000   229.42973      14.607591      1298.8286      4595.4072     -0.14646051   
    731000   228.47598      9.7084893      1313.6105      4591.6467     -0.10594371   
    732000   236.38427      10.316785      1278.8996      4670.6714     -0.012024555  
    733000   236.41131      12.678112      1295.2696      4689.7896      0.50646707   
    734000   237.66936      12.534694      1250.3145      4662.6874      0.35077893   
    735000   234.15961      10.479974      1267.5885      4627.7         0.49313484   
    736000   236.37249      10.707857      1250.7761      4642.7706      0.20696985   
    737000   241.69967      10.578643      1244.7361      4712.8062      0.47088928   
    738000   242.48753      10.994186      1227.8707      4707.6265      0.65089      
    739000   239.23538      8.1308617      1216.4479      4646.8187      0.8775556    
    740000   235.79543      8.0178467      1229.1875      4610.2372      0.30184316   
    741000   235.67464      9.5490745      1245.2993      4626.1523      0.51629093   
    742000   238.55034      9.7355412      1238.2093      4660.3853      0.68033496   
    743000   235.54754      9.6420768      1280.1757      4659.3036      0.42060035   
    744000   234.60064      9.2579004      1265.4229      4630.6212      0.38429921   
    745000   230.46761      8.9508035      1280.2891      4586.0577      0.45173933   
    746000   230.11333      9.332198       1297.1526      4598.2347      0.37072847   
    747000   235.84162      8.6353239      1313.9161      4696.2439     -0.075770165  
    748000   236.75908      8.5130488      1310.966       4706.2957      0.32781421   
    749000   235.41658      8.0425417      1276.2126      4651.8676      0.31487615   
    750000   233.96349      7.7755393      1260.1436      4614.7452     -0.20226097   
    751000   235.61731      8.0399055      1252.6622      4631.1859     -0.14786434   
    752000   242.17801      5.8112736      1248.6705      4718.8158      0.16084217   
    753000   241.89931      8.4337479      1247.0967      4715.8776     -0.15521318   
    754000   238.43892      10.488362      1212.8478      4634.1828     -0.16833881   
    755000   237.01382      11.05868       1220.8532      4622.3727     -0.21094273   
    756000   239.05402      9.6424625      1224.8069      4654.0951     -0.12278504   
    757000   239.44131      9.5598458      1248.4545      4683.2001     -0.19225679   
    758000   238.72694      11.46897       1242.2621      4668.6979     -0.13018454   
    759000   231.05719      11.476988      1267.8901      4584.6188     -0.12769004   
    760000   233.24411      10.808457      1255.8686      4603.2125     -0.075176195  
    761000   236.78886      11.282478      1280.8019      4679.3272     -0.38140691   
    762000   236.67542      10.887208      1289.8367      4686.3439      0.3656536    
    763000   234.36713      13.534371      1288.912       4655.0465      0.061445873  
    764000   233.40337      12.155616      1281.5095      4632.4787      0.075091613  
    765000   233.7277       14.251756      1287.0319      4644.7368      0.05439803   
    766000   238.8224       12.895773      1303.5662      4732.7943      0.5189533    
    767000   239.88886      11.691645      1283.351       4726.6305      0.22537795   
    768000   239.35922      10.634751      1234.7568      4669.403       0.55951137   
    769000   236.70759      13.333981      1232.8178      4632.232       0.52401789   
    770000   237.10472      14.370346      1236.0082      4642.1397      0.40390618   
    771000   240.86475      14.405494      1241.1599      4701.1134      0.6243337    
    772000   244.02637      12.414919      1238.0155      4741.2051      0.65128259   
    773000   240.06501      12.388767      1220.4861      4666.9825      0.79681603   
    774000   233.99904      12.472907      1233.4527      4593.2602      0.3080057    
    775000   232.81793      12.758106      1289.7287      4632.9257      0.21131619   
    776000   237.04939      10.500067      1298.2248      4699.6944      0.74433764   
    777000   236.52211      12.371357      1291.1274      4686.9256      0.70371703   
    778000   231.4584       11.446627      1289.6512      4612.0888     -0.010391616  
    779000   230.967        11.957086      1279.8085      4595.7271      0.074169713  
    780000   237.25255      12.370881      1318.356       4724.6027      0.16896589   
    781000   239.65577      10.96038       1288.8008      4728.0148      0.39060932   
    782000   233.86496      11.692116      1288.548       4645.6567     -0.21797846   
    783000   233.47934      11.552351      1259.2926      4610.7453      0.10613861   
    784000   236.49313      13.802077      1244.4761      4641.2906     -0.093725511  
    785000   241.35206      10.828413      1254.7698      4718.117      -0.23741297   
    786000   241.76383      11.016543      1244.1506      4713.5763     -0.40518981   
    787000   234.2161       10.446035      1235.9267      4596.8124      0.082154825  
    788000   235.09095      9.6460809      1230.1299      4602.7303      0.0015218236 
    789000   238.4802       15.009873      1239.411       4665.858      -0.65292233   
    790000   240.77366      11.19241       1251.5871      4707.0245     -0.25931826   
    791000   236.78015      14.397538      1267.9015      4669.4171      0.068865629  
    792000   230.23195      16.518314      1275.8544      4585.8195     -0.079218801  
    793000   231.11001      12.246642      1284.4508      4602.7048     -0.21723695   
    794000   236.49737      10.220339      1277.3053      4670.5987     -0.064646599  
    795000   235.83198      10.942249      1284.9393      4669.4362      0.29933895   
    796000   235.74108      12.558076      1260.1266      4644.939       0.26764212   
    797000   232.95715      12.380842      1274.0596      4618.8708     -0.00080140802
    798000   234.64184      14.22081       1285.1437      4655.8943      0.55721172   
    799000   241.00929      12.768272      1272.3966      4732.7804      0.58245447   
    800000   238.1369       14.230043      1272.4462      4693.2026      0.36397658   
    801000   237.74633      12.556884      1211.8132      4625.3093      0.43533062   
    802000   235.75426      10.642187      1241.8217      4624.9068      0.68151454   
    803000   237.68067      12.207038      1244.8745      4657.0815      0.66278009   
    804000   238.43921      13.151301      1249.1554      4673.1575      0.68532522   
    805000   236.23685      11.624068      1249.1355      4640.1059      0.5096828    
    806000   234.36579      12.894445      1224.9931      4590.4684      0.52731664   
    807000   234.47788      7.3880775      1251.9513      4613.5238      0.48543835   
    808000   236.33247      8.8242143      1286.2465      4675.7848      0.6102276    
    809000   237.43026      10.097207      1288.0493      4694.5644      0.26226367   
    810000   228.8821       6.7750394      1303.7482      4584.6604      0.28035261   
    811000   228.55707      7.2440974      1289.0523      4565.7842      0.38750465   
    812000   235.78767      7.7500329      1274.2488      4654.9197     -0.15980096   
    813000   236.22135      7.5678788      1294.333       4681.0254     -0.011372826  
    814000   236.6851       7.3399446      1262.2118      4655.3102      0.18140102   
    815000   233.413        10.61131       1242.7336      4592.2963     -0.025999324  
    816000   232.11556      7.7369541      1237.6513      4565.7798     -0.4042671    
    817000   238.25426      9.0670407      1236.3593      4653.6316     -0.50834779   
    818000   240.83126      10.491487      1247.0593      4702.6196      0.16993934   
    819000   239.09322      10.913248      1231.4609      4662.5805     -0.1388778    
    820000   237.71614      8.2009164      1202.6405      4611.3489     -0.34010676   
    821000   234.25739      10.543317      1258.107       4619.6807     -0.75709472   
    822000   241.00579      9.9229308      1266.768       4724.2564      0.13697353   
    823000   240.31827      13.003109      1255.9156      4706.6493      0.19303302   
    824000   235.01796      9.5727317      1268.315       4639.7979     -0.30886943   
    825000   235.79773      11.48104       1248.1266      4632.6724     -0.18401171   
    826000   233.1112       9.5356876      1313.4947      4657.6645     -0.021169329  
    827000   235.21429      10.35279       1306.7023      4681.7737      0.42959569   
    828000   234.17869      9.4619697      1248.5105      4607.8769      0.28296706   
    829000   228.58386      11.341006      1298.3196      4579.5315      0.083286522  
    830000   237.04576      10.014789      1246.4071      4647.3395      0.5220807    
    831000   237.12761      8.6515732      1287.3784      4688.1185      0.39957622   
    832000   237.95185      9.761833       1264.4457      4678.0867      0.73653713   
    833000   234.6046       8.7777395      1233.4056      4598.1804      0.50031436   
    834000   231.31688      9.8164617      1265.3315      4584.1145      0.51292694   
    835000   238.90487      9.7468361      1211.2249      4638.4838      0.69268014   
    836000   236.10899      8.7436209      1265.2512      4651.5121      0.82285621   
    837000   238.08235      11.880011      1252.813       4670.439       0.37705198   
    838000   239.71314      11.190212      1225.7566      4666.021       0.76922566   
    839000   234.23578      11.110921      1271.4245      4633.2566      0.2962958    
    840000   235.49088      11.723355      1234.2146      4614.6132      0.79323931   
    841000   230.87223      13.668373      1278.3764      4594.6506      0.097153146  
    842000   235.89408      13.671083      1279.2756      4667.3897      0.24593263   
    843000   238.31482      11.888775      1304.0406      4725.0009      0.3555315    
    844000   234.69436      9.9564534      1305.0972      4672.3347      0.12257078   
    845000   235.78827      12.650629      1253.9007      4639.4807     -0.24034417   
    846000   234.56752      11.257144      1270.7659      4637.4896      0.0049828831 
    847000   235.46381      12.471327      1278.1471      4658.9065     -0.096151276  
    848000   238.69936      12.870293      1257.5974      4685.0399     -0.18913746   
    849000   234.4924       13.687059      1253.4978      4621.577      -0.51003251   
    850000   235.79964      15.994298      1206.6681      4595.7543     -0.095944306  
    851000   236.10452      15.287822      1240.0925      4632.8337     -0.21649458   
    852000   241.50241      13.529938      1234.6266      4702.8263     -0.3795951    
    853000   239.25823      13.476899      1253.4185      4689.4622     -0.35185089   
    854000   236.54701      13.248109      1236.0781      4633.1093     -0.27330281   
    855000   233.83089      11.045319      1236.8815      4592.8561      0.1261558    
    856000   229.98087      14.343886      1253.0348      4557.2339     -0.25135328   
    857000   233.09412      12.223281      1269.4492      4616.0623     -0.061622071  
    858000   236.54051      10.278863      1295.7532      4689.7222      0.16168237   
    859000   236.10951      12.306096      1294.8003      4684.6311      0.087225417  
    860000   233.44438      10.018314      1269.1113      4618.5299      0.33430614   
    861000   231.43014      9.9411552      1263.7741      4584.302       0.5024095    
    862000   238.14278      10.422054      1260.5348      4677.5672      0.26986391   
    863000   239.4019       9.9735311      1271.5187      4706.1143      0.74142687   
    864000   237.47755      10.285484      1244.734       4652.1139      0.47033234   
    865000   236.65942      11.828189      1212.2655      4609.4848      0.70541909   
    866000   235.84988      11.714541      1233.539       4619.0643      0.81203705   
    867000   241.72004      14.421698      1250.8792      4723.0838      0.77242681   
    868000   243.17411      11.62183       1231.1184      4721.3234      0.79333355   
    869000   238.8971       10.154115      1238.5929      4666.1479      0.29728489   
    870000   237.66387      9.428572       1225.0658      4634.2541      0.76545889   
    871000   236.47055      8.7672092      1232.3658      4623.8223      0.78522486   
    872000   236.63894      6.6596694      1269.3432      4661.101       0.39911505   
    873000   241.50158      7.820049       1276.3449      4738.8227     -0.031917711  
    874000   240.67455      7.7577459      1242.4118      4692.9967      0.53995465   
    875000   232.94637      10.341404      1268.5853      4611.2029      0.10898331   
    876000   234.71119      10.353659      1261.2542      4629.1297      0.069409846  
    877000   235.9978       11.113257      1282.4951      4669.5351     -0.21833231   
    878000   240.37272      10.586018      1254.174       4703.2695     -0.13660697   
    879000   235.43438      11.613279      1260.8231      4640.3033     -0.24396047   
    880000   231.03002      12.762716      1252.9997      4570.6255     -0.10503649   
    881000   235.94339      15.08059       1232.1114      4622.3403     -0.48195309   
    882000   240.42246      12.467379      1229.4248      4681.1133     -0.17517489   
    883000   239.06336      10.823019      1243.4009      4674.0032     -0.53489979   
    884000   236.92452      9.7233373      1243.8438      4642.7505     -0.32818504   
    885000   236.1108       12.775715      1225.8399      4616.1587     -0.18741998   
    886000   234.02265      13.848462      1229.5547      4591.0754      0.029165888  
    887000   233.86383      9.9842422      1243.9713      4599.3559     -0.30569478   
    888000   237.94833      7.153937       1261.208       4672.1907     -0.41624695   
    889000   240.16158      9.7457278      1262.3733      4707.6082      0.21115453   
    890000   235.18477      8.7348249      1269.1572      4642.1883      0.58212735   
    891000   230.41247      8.8287415      1278.0101      4582.8678     -0.24295783   
    892000   233.20408      8.6095349      1271.5395      4616.1118      0.20280509   
    893000   235.93742      11.236595      1272.8345      4659.134       0.61883924   
    894000   237.91735      8.492405       1266.5704      4678.4484      0.74839294   
    895000   235.51999      9.2559131      1268.4372      4646.7848      0.38551861   
    896000   233.87348      10.799072      1228.423       4584.7605      0.56470039   
    897000   232.70324      14.846963      1258.9108      4602.5561      0.92749317   
    898000   241.01408      12.405367      1237.2718      4697.3612      0.6937763    
    899000   240.32428      12.226495      1245.4151      4695.4582      0.65401859   
[...]
   9786000   233.07169      5.8231417      1388.2518      4728.1439     -0.15044316   
   9787000   234.66541      6.4204437      1376.3646      4739.652      -0.51957624   
   9788000   236.0685       10.614962      1399.218       4786.771      -0.18957138   
   9789000   239.16304      11.312764      1396.3267      4828.8445     -0.38151211   
   9790000   237.85328      13.566358      1359.5855      4775.6209     -0.31745      
   9791000   233.52118      10.086371      1348.181       4698.7662     -0.12763613   
   9792000   235.1667       10.766027      1348.6828      4723.4868     -0.2164379    
   9793000   236.5991       11.158487      1371.4375      4767.1241     -0.17024086   
   9794000   237.50156      12.708104      1376.3759      4786.5219     -0.41654373   
   9795000   238.67968      11.946305      1345.3558      4771.5928      0.33204675   
   9796000   231.86719      12.495847      1324.6371      4653.9717     -0.027329866  
   9797000   231.22134      10.077489      1333.9316      4651.609      -0.036608862  
   9798000   235.88288      9.0258746      1350.0163      4733.325       0.212183     
   9799000   237.28298      8.2872255      1374.6282      4777.2265      0.38004888   
   9800000   237.58489      10.507466      1377.7039      4786.8412     -0.046048189  
   9801000   236.98184      13.713593      1337.9775      4741.6944      0.54612783   
   9802000   232.19412      12.975242      1338.1266      4672.6173      0.7016706    
   9803000   234.77152      11.624417      1355.0245      4725.0338      0.38849098   
   9804000   236.44123      10.821847      1372.9411      4766.0328      0.23365296   
   9805000   238.08731      11.393083      1355.8694      4773.0794      0.62427148   
   9806000   237.22804      12.644245      1350.838       4757.0074      0.75522923   
   9807000   234.32771      10.119223      1341.5675      4703.7228      0.32964404   
   9808000   233.18037      10.319884      1336.7737      4682.7172      0.51871002   
   9809000   237.63882      6.7940175      1351.8698      4758.0652      0.69809252   
   9810000   242.56882      8.1669794      1346.1747      4824.2662     -0.1371204    
   9811000   240.42382      7.3343716      1339.3466      4785.9215      0.62191161   
   9812000   235.73947      9.7579795      1345.891       4727.8804      0.21494497   
   9813000   236.11014      7.9505903      1344.5233      4730.0076      0.53775878   
   9814000   239.27317      7.4288263      1329.7924      4760.0018     -0.30280609   
   9815000   237.90991      6.5278442      1362.6673      4772.4744      0.20871475   
   9816000   238.65899      7.0087374      1369.0496      4790.0531     -0.08656415   
   9817000   235.61443      8.4735121      1374.9008      4753.8169      0.028198417  
   9818000   235.6223       8.2141135      1347.2973      4726.0667     -0.48253572   
   9819000   232.15202      10.062392      1372.9486      4703.9241      0.015158545  
   9820000   231.69608      9.3201706      1369.0676      4692.7788     -0.38801477   
   9821000   237.12266      9.6748422      1360.9711      4762.6636     -0.30942548   
   9822000   238.21563      8.3379595      1393.9173      4809.9078     -0.3025461    
   9823000   236.75602      7.9559903      1390.65        4785.379      -0.29164768   
   9824000   234.82711      6.6539379      1349.1534      4714.9874     -0.46984933   
   9825000   229.8482       9.1119792      1354.4984      4651.5676     -0.20754595   
   9826000   235.91893      9.3634725      1348.7047      4732.8667      0.0029169841 
   9827000   239.06394      10.665578      1371.5763      4802.0294     -0.30868398   
   9828000   237.74905      10.692839      1376.624       4788.295      -0.31211645   
   9829000   235.02512      12.629133      1364.0409      4738.6827     -0.042792425  
   9830000   234.60201      11.281037      1348.1081      4715.3491      0.29975002   
   9831000   238.26959      9.7803575      1351.4793      4769.684       0.023130408  
   9832000   241.78077      12.673015      1375.3194      4846.644      -0.024874963  
   9833000   237.79408      12.958912      1390.1442      4804.7254      0.19920409   
   9834000   234.994        14.239246      1377.3591      4753.1657      0.49643816   
   9835000   234.44646      12.828386      1383.3641      4749.9275      0.46486917   
   9836000   236.23025      10.694499      1380.351       4770.2974      0.20246257   
   9837000   237.0828       12.12959       1394.1359      4797.713       0.53102903   
   9838000   239.66524      14.208051      1377.439       4820.0361      0.712586     
   9839000   236.9418       10.296119      1356.6488      4756.3754      0.5205057    
   9840000   235.32381      11.573857      1352.7694      4730.6285      0.2376334    
   9841000   237.49192      15.008156      1362.6006      4774.9088      0.69918588   
   9842000   237.47149      16.714316      1388.1627      4801.8846      0.64416112   
   9843000   242.6534       14.373257      1323.469       4808.9766      0.58570527   
   9844000   237.07602      12.51175       1340.5497      4744.4119      0.28376842   
   9845000   234.459        11.774779      1347.3207      4713.0097      0.24000879   
   9846000   237.05081      14.037038      1345.254       4750.2809      0.24208545   
   9847000   240.04123      15.983432      1379.7237      4829.4747      0.43828719   
   9848000   241.44617      14.432488      1352.3926      4820.6902      0.3757169    
   9849000   236.71964      16.124144      1371.3421      4773.7187     -0.21497854   
   9850000   235.40724      11.958786      1373.2304      4752.668      -0.37341785   
   9851000   235.17611      10.060197      1372.0571      4746.2897      0.18316167   
   9852000   235.89873      12.61579       1376.6151      4763.7404     -0.23569872   
   9853000   239.25928      15.334889      1377.7699      4815.6866     -0.052980153  
   9854000   238.36514      14.297975      1384.2476      4808.3368     -0.47908553   
   9855000   236.26295      12.023748      1361.1739      4752.9172      0.053671548  
   9856000   232.63512      8.697033       1355.0824      4691.6033     -0.4832942    
   9857000   232.26828      11.466987      1385.4199      4719.4631     -0.25114337   
   9858000   238.55992      13.903023      1395.9058      4822.3864     -0.46489243   
   9859000   241.72555      12.175252      1352.6324      4822.6693      0.074700906  
   9860000   238.05303      12.456191      1339.0901      4756.8728     -0.22738358   
   9861000   235.1571       10.877555      1336.8731      4711.6511      0.062163529  
   9862000   235.9757       8.8379601      1340.6648      4725.1133     -0.54722413   
   9863000   243.87254      10.031553      1313.37        4811.9757      0.28450101   
   9864000   239.45401      14.239892      1370.7157      4810.3231      0.35620223   
   9865000   236.41849      13.057696      1363.2151      4758.2173      0.061979042  
   9866000   234.65466      14.839594      1360.125       4731.6778      0.0020249952 
   9867000   236.47305      10.742045      1357.3441      4750.8113      0.28843517   
   9868000   239.28649      11.058961      1364.8038      4798.8339      0.66118298   
   9869000   237.65524      9.1943485      1373.2985      4782.1291      0.39610349   
   9870000   234.02766      6.1133992      1351.2123      4705.0697      0.15111875   
   9871000   232.52218      7.327606       1381.6853      4715.2211      0.43943987   
   9872000   235.97713      9.2912008      1379.209       4764.1312      0.60572304   
   9873000   238.1191       12.706862      1359.1267      4778.1053      0.45287828   
   9874000   237.34887      15.479669      1347.777       4758.5103      0.51925675   
   9875000   233.44322      18.056908      1329.4519      4686.8924      0.21099502   
   9876000   232.5279       23.648674      1364.3511      4714.2899      0.74598977   
   9877000   238.59501      15.902942      1359.0288      4788.0113      0.21262195   
   9878000   241.51121      11.327101      1345.3815      4811.5041      0.25358363   
   9879000   236.53837      12.95733       1373.9009      4770.5177      0.15167454   
   9880000   236.08252      17.032324      1349.9456      4744.1166      0.5345254    
   9881000   235.19058      11.066005      1371.069       4746.5145     -0.073220942  
   9882000   234.96132      13.458833      1390.9508      4765.5096     -0.37241495   
   9883000   236.66043      15.060925      1370.4311      4770.8976      0.35984058   
   9884000   237.03189      13.517925      1354.3982      4758.6353      0.1257074    
   9885000   233.94065      10.325189      1390.2137      4747.0383     -0.28278885   
   9886000   234.62296      9.3725181      1395.6547      4761.2869     -0.41228714   
   9887000   236.84431      8.0963714      1394.0773      4790.2096      0.14272201   
   9888000   242.31048      7.9203342      1374.1464      4848.2957     -0.3172626    
   9889000   238.39394      8.2482173      1393.9054      4812.3568     -0.28354249   
   9890000   234.86848      6.3936724      1388.6617      4754.8272      0.11713502   
   9891000   238.17825      6.5441438      1329.8859      4743.5479     -0.31310189   
   9892000   234.1803       10.156519      1387.9872      4748.0713     -0.45287271   
   9893000   238.47172      11.595277      1380.3524      4803.2636      0.3083549    
   9894000   241.94822      12.763761      1352.1441      4825.9548      0.088238756  
   9895000   241.90105      11.34095       1380.9482      4852.6612     -0.36400534   
   9896000   239.53126      12.06774       1360.2013      4798.7415     -0.11593562   
   9897000   233.01619      13.811962      1377.37        4724.457       0.66262233   
   9898000   234.56591      9.9042275      1367.8899      4733.2378     -0.24883715   
   9899000   240.51668      9.7156044      1343.6066      4793.8911      0.22895466   
   9900000   236.89681      9.3830306      1419.0854      4817.2554      0.19477928   
   9901000   237.75862      9.1658152      1353.2202      4763.501       0.60553129   
   9902000   231.02171      7.9943733      1378.4111      4691.1495     -0.11341851   
   9903000   234.75522      9.818102       1373.561       4741.5309      0.21730989   
   9904000   236.34714      8.1571377      1405.8307      4794.9118      0.53917647   
   9905000   238.55304      8.0702551      1374.0397      4794.5891      0.47598811   
   9906000   230.74199      9.481891       1387.1871      4697.4119      0.048439276  
   9907000   234.24277      11.923913      1334.3949      4697.1399      0.52636821   
   9908000   235.29965      13.044719      1366.6985      4745.6829      0.023435836  
   9909000   236.72139      12.789976      1373.1893      4772.2568      0.6233968    
   9910000   240.74384      14.010921      1334.5348      4792.3641      0.20504537   
   9911000   236.53281      8.5868827      1371.8735      4764.0404      0.11606677   
   9912000   233.52822      10.239858      1344.6221      4695.4616      0.1641153    
   9913000   231.06552      7.8824369      1381.4967      4694.7501     -0.056420166  
   9914000   237.97236      7.0340924      1376.6078      4787.8145      0.28718719   
   9915000   238.24507      12.014976      1382.5785      4802.6672     -0.089503364  
   9916000   233.27946      16.151049      1417.4889      4770.681       0.032770906  
   9917000   232.7326       12.046424      1390.9561      4732.2207      0.027603773  
   9918000   231.3694       11.609508      1378.4558      4699.7831     -0.27213555   
   9919000   234.19328      8.7086248      1399.5571      4758.3788      0.32437732   
   9920000   239.57781      10.02309       1397.0362      4834.1977     -0.33138169   
   9921000   237.94967      12.077026      1391.3467      4807.2717     -0.28208326   
   9922000   234.35981      11.621733      1373.1283      4737.2453     -0.041594639  
   9923000   232.94957      12.120897      1390.1466      4734.5895      0.23876257   
   9924000   235.27417      10.657725      1400.1256      4776.3586     -0.20514447   
   9925000   240.16672      8.37146        1351.122       4795.0561     -0.18911907   
   9926000   236.08866      7.9733392      1385.5353      4770.7351      0.077689559  
   9927000   236.59643      10.884752      1352.5159      4747.8907      0.15280288   
   9928000   234.91628      11.858442      1336.0523      4708.3663      0.13404774   
   9929000   234.59698      12.655814      1352.8446      4721.3884     -0.066847596  
   9930000   241.2955       8.4382477      1351.7197      4811.8676      0.38531995   
   9931000   237.4119       11.074884      1409.5376      4816.7678      0.11556944   
   9932000   236.79359      12.74843       1366.2854      4766.3442      0.26576173   
   9933000   235.05968      12.658542      1354.1578      4729.3234      0.2984665    
   9934000   234.41216      10.39222       1401.9234      4765.5598      0.13874074   
   9935000   240.63087      10.034077      1407.6762      4859.9126      0.33294085   
   9936000   238.99355      11.081302      1368.9417      4798.8037      0.33689262   
   9937000   235.06233      8.3084561      1366.5728      4737.4261      0.17075298   
   9938000   235.43205      8.2974464      1358.2287      4734.3599      0.55878906   
   9939000   236.952        9.4181057      1374.4653      4773.4597      0.12147969   
   9940000   242.96683      14.014545      1367.3922      4857.0247      0.34487418   
   9941000   238.08255      11.819647      1410.1657      4827.7341      0.050879636  
   9942000   236.17709      9.9550251      1353.1605      4741.6069      0.48735849   
   9943000   236.75486      9.2273671      1340.2955      4736.2791     -0.03339038   
   9944000   237.2202       10.35305       1358.462       4762.228       0.11212544   
   9945000   240.65072      11.699578      1348.1593      4802.3452      0.21954555   
   9946000   237.66845      12.234887      1375.8838      4787.9438      0.049214336  
   9947000   237.21393      15.129764      1320.728       4729.1812      0.015723926  
   9948000   234.90951      18.374648      1359.6682      4738.4016      0.0056445767 
   9949000   238.329        14.792548      1357.7403      4781.8072     -0.12787339   
   9950000   240.15309      11.576029      1357.9024      4804.8462     -0.027445231  
   9951000   234.32588      11.846222      1387.5618      4751.4181     -0.32909786   
   9952000   231.79963      12.08857       1357.2783      4685.2391      0.41282805   
   9953000   236.70829      9.602292       1349.7676      4745.4601     -0.1675683    
   9954000   238.64499      10.871341      1378.4696      4803.1354     -0.22566574   
   9955000   236.67575      13.901908      1400.876       4800.4026     -0.03066801   
   9956000   236.07484      14.700089      1381.4209      4773.1497     -0.13377339   
   9957000   234.44927      12.527119      1380.3814      4746.6837      0.26222224   
   9958000   235.7521       9.4918215      1371.6426      4753.5465      0.17289609   
   9959000   237.03158      14.381627      1366.5458      4771.6422     -0.17827062   
   9960000   240.17758      6.4360925      1354.8013      4796.9554      0.29764866   
   9961000   240.32764      7.3044535      1370.2636      4815.4327     -0.00010790325
   9962000   241.39234      6.8387551      1346.0428      4805.9766      0.59149547   
   9963000   237.31656      6.4953541      1348.3046      4749.5914     -0.017345278  
   9964000   235.77504      10.34605       1336.3471      4719.4333      0.11267929   
   9965000   234.92813      9.4837609      1388.1749      4758.2838      0.42507765   
   9966000   243.71473      10.088629      1347.0731      4843.4783      0.48868665   
   9967000   238.78207      8.9888282      1381.9021      4806.6464      0.18374913   
   9968000   235.26389      9.2567581      1381.5988      4756.2837      0.12072132   
   9969000   235.45992      10.182376      1364.5949      4743.0096      0.24802181   
   9970000   236.80465      9.0951745      1402.3818      4798.9455      0.57859155   
   9971000   239.57573      9.5261847      1429.0535      4865.6883      0.13348194   
   9972000   236.31881      9.2966872      1413.8186      4803.6339     -0.15280575   
   9973000   236.62489      10.781994      1345.2876      4740.9667      0.35181372   
   9974000   234.10146      13.003467      1380.854       4742.6572      0.23197953   
   9975000   234.29119      12.178589      1413.8342      4777.5266     -0.10175498   
   9976000   237.47022      9.3058335      1395.7551      4802.0504     -0.014269335  
   9977000   239.32029      10.348035      1378.3881      4812.1907      0.034621888  
   9978000   237.24232      8.0416826      1400.2032      4801.9743     -0.020973538  
   9979000   235.32857      7.3391043      1398.7816      4772.4742     -0.23964756   
   9980000   236.65863      6.6860491      1371.1186      4763.1844      0.0013008392 
   9981000   236.02418      10.302081      1385.1216      4771.7277     -0.087502252  
   9982000   239.73727      11.015937      1401.0616      4841.497      -0.25249456   
   9983000   238.43119      9.7843305      1420.442       4840.9625     -0.069554945  
   9984000   236.00676      9.2107657      1382.142       4767.4076      0.021378067  
   9985000   232.36912      10.189611      1393.4869      4727.6952     -0.049857272  
   9986000   235.1784       10.952198      1387.5726      4762.7301     -0.089720733  
   9987000   241.58423      12.353544      1383.5518      4851.7454      0.10357429   
   9988000   240.75789      14.16674       1401.4627      4859.6488      0.20479462   
   9989000   232.70917      14.25568       1410.7191      4753.858      -0.092716777  
   9990000   233.56438      10.630839      1392.9298      4744.6775      0.029347037  
   9991000   237.01552      6.9897778      1392.7857      4790.2606      0.30025917   
   9992000   239.12746      7.4623644      1398.5599      4826.7184      0.0068735582 
   9993000   236.15487      7.3794382      1393.1048      4778.6577      0.68956799   
   9994000   234.1548       5.588823       1373.8032      4728.9548     -0.40028775   
   9995000   235.69791      3.8543055      1375.9155      4751.4066      0.47089562   
   9996000   238.64219      7.0818431      1371.5273      4792.3636      0.19403708   
   9997000   238.29174      5.1210439      1380.2644      4794.1268      0.55433998   
   9998000   238.12977      5.9099855      1358.9196      4771.254       0.29857994   
   9999000   234.13875      8.7708624      1385.568       4743.672       0.18983153   
  10000000   236.50231      8.3998625      1392.8364      4784.3799      0.31096133   
Loop time of 868.992 on 128 procs for 10000000 steps with 4800 atoms

Performance: 99.426 ns/day, 0.241 hours/ns, 11507.581 timesteps/s
100.0% CPU use with 128 MPI tasks x 1 OpenMP threads

MPI task timing breakdown:
Section |  min time  |  avg time  |  max time  |%varavg| %total
---------------------------------------------------------------
Pair    | 0.93666    | 2.5694     | 23.474     | 135.4 |  0.30
Bond    | 5.8872     | 25.047     | 137.9      | 298.3 |  2.88
Neigh   | 2.956      | 3.12       | 3.2688     |   4.1 |  0.36
Comm    | 60.019     | 147.54     | 288.73     | 337.5 | 16.98
Output  | 2.6584     | 2.6665     | 2.6864     |   0.3 |  0.31
Modify  | 277.79     | 456.84     | 551.13     | 234.4 | 52.57
Other   |            | 231.2      |            |       | 26.61

Nlocal:           37.5 ave         161 max           0 min
Histogram: 51 15 21 14 6 13 2 2 2 2
Nghost:        21.6953 ave          70 max           0 min
Histogram: 29 23 21 15 10 9 6 7 4 4
Neighs:        10.9688 ave          75 max           0 min
Histogram: 68 21 20 7 4 5 1 0 0 2

Total # of neighbors = 1404
Ave neighs/atom = 0.2925
Ave special neighs/atom = 8.4583333
Neighbor list builds = 17706
Dangerous builds = 0
Total wall time: 0:14:29
