# Model for poly(2-vinyl) chain

4800 atoms
4700 bonds
2300 angles


2 atom types
2 bond types
1 angle types

0 529.0 xlo xhi
0 529.0 ylo yhi
0 529.0 zlo zhi


Masses

1 88.133
2 17.007


Atoms

1 1 1 264.5 264.5 264.5
2 1 2 264.5 266.4573 264.5
3 1 1 269.79 264.5 264.5
4 1 2 269.79 266.4573 264.5
5 1 1 275.08 264.5 264.5
6 1 2 275.08 266.4573 264.5
7 1 1 280.37 264.5 264.5
8 1 2 280.37 266.4573 264.5
9 1 1 285.66 264.5 264.5
10 1 2 285.66 266.4573 264.5
11 1 1 290.95 264.5 264.5
12 1 2 290.95 266.4573 264.5
13 1 1 296.24 264.5 264.5
14 1 2 296.24 266.4573 264.5
15 1 1 301.53000000000003 264.5 264.5
16 1 2 301.53000000000003 266.4573 264.5
17 1 1 306.82 264.5 264.5
18 1 2 306.82 266.4573 264.5
19 1 1 312.11 264.5 264.5
20 1 2 312.11 266.4573 264.5
21 1 1 317.4 264.5 264.5
22 1 2 317.4 266.4573 264.5
23 1 1 322.69 264.5 264.5
24 1 2 322.69 266.4573 264.5
25 1 1 327.98 264.5 264.5
26 1 2 327.98 266.4573 264.5
27 1 1 333.27 264.5 264.5
28 1 2 333.27 266.4573 264.5
29 1 1 338.56 264.5 264.5
30 1 2 338.56 266.4573 264.5
31 1 1 343.85 264.5 264.5
32 1 2 343.85 266.4573 264.5
33 1 1 349.14 264.5 264.5
34 1 2 349.14 266.4573 264.5
35 1 1 354.43 264.5 264.5
36 1 2 354.43 266.4573 264.5
37 1 1 359.72 264.5 264.5
38 1 2 359.72 266.4573 264.5
39 1 1 365.01 264.5 264.5
40 1 2 365.01 266.4573 264.5
41 1 1 370.3 264.5 264.5
42 1 2 370.3 266.4573 264.5
43 1 1 375.59 264.5 264.5
44 1 2 375.59 266.4573 264.5
45 1 1 380.88 264.5 264.5
46 1 2 380.88 266.4573 264.5
47 1 1 386.17 264.5 264.5
48 1 2 386.17 266.4573 264.5
49 2 1 264.5 264.5 275.08
50 2 2 264.5 266.4573 275.08
51 2 1 269.79 264.5 275.08
52 2 2 269.79 266.4573 275.08
53 2 1 275.08 264.5 275.08
54 2 2 275.08 266.4573 275.08
55 2 1 280.37 264.5 275.08
56 2 2 280.37 266.4573 275.08
57 2 1 285.66 264.5 275.08
58 2 2 285.66 266.4573 275.08
59 2 1 290.95 264.5 275.08
60 2 2 290.95 266.4573 275.08
61 2 1 296.24 264.5 275.08
62 2 2 296.24 266.4573 275.08
63 2 1 301.53000000000003 264.5 275.08
64 2 2 301.53000000000003 266.4573 275.08
65 2 1 306.82 264.5 275.08
66 2 2 306.82 266.4573 275.08
67 2 1 312.11 264.5 275.08
68 2 2 312.11 266.4573 275.08
69 2 1 317.4 264.5 275.08
70 2 2 317.4 266.4573 275.08
71 2 1 322.69 264.5 275.08
72 2 2 322.69 266.4573 275.08
73 2 1 327.98 264.5 275.08
74 2 2 327.98 266.4573 275.08
75 2 1 333.27 264.5 275.08
76 2 2 333.27 266.4573 275.08
77 2 1 338.56 264.5 275.08
78 2 2 338.56 266.4573 275.08
79 2 1 343.85 264.5 275.08
80 2 2 343.85 266.4573 275.08
81 2 1 349.14 264.5 275.08
82 2 2 349.14 266.4573 275.08
83 2 1 354.43 264.5 275.08
84 2 2 354.43 266.4573 275.08
85 2 1 359.72 264.5 275.08
86 2 2 359.72 266.4573 275.08
87 2 1 365.01 264.5 275.08
88 2 2 365.01 266.4573 275.08
89 2 1 370.3 264.5 275.08
90 2 2 370.3 266.4573 275.08
91 2 1 375.59 264.5 275.08
92 2 2 375.59 266.4573 275.08
93 2 1 380.88 264.5 275.08
94 2 2 380.88 266.4573 275.08
95 2 1 386.17 264.5 275.08
96 2 2 386.17 266.4573 275.08
97 3 1 264.5 264.5 285.66
98 3 2 264.5 266.4573 285.66
99 3 1 269.79 264.5 285.66
100 3 2 269.79 266.4573 285.66
101 3 1 275.08 264.5 285.66
102 3 2 275.08 266.4573 285.66
103 3 1 280.37 264.5 285.66
104 3 2 280.37 266.4573 285.66
105 3 1 285.66 264.5 285.66
106 3 2 285.66 266.4573 285.66
107 3 1 290.95 264.5 285.66
108 3 2 290.95 266.4573 285.66
109 3 1 296.24 264.5 285.66
110 3 2 296.24 266.4573 285.66
111 3 1 301.53000000000003 264.5 285.66
112 3 2 301.53000000000003 266.4573 285.66
113 3 1 306.82 264.5 285.66
114 3 2 306.82 266.4573 285.66
115 3 1 312.11 264.5 285.66
116 3 2 312.11 266.4573 285.66
117 3 1 317.4 264.5 285.66
118 3 2 317.4 266.4573 285.66
119 3 1 322.69 264.5 285.66
120 3 2 322.69 266.4573 285.66
121 3 1 327.98 264.5 285.66
122 3 2 327.98 266.4573 285.66
123 3 1 333.27 264.5 285.66
124 3 2 333.27 266.4573 285.66
125 3 1 338.56 264.5 285.66
126 3 2 338.56 266.4573 285.66
127 3 1 343.85 264.5 285.66
128 3 2 343.85 266.4573 285.66
129 3 1 349.14 264.5 285.66
130 3 2 349.14 266.4573 285.66
131 3 1 354.43 264.5 285.66
132 3 2 354.43 266.4573 285.66
133 3 1 359.72 264.5 285.66
134 3 2 359.72 266.4573 285.66
135 3 1 365.01 264.5 285.66
136 3 2 365.01 266.4573 285.66
137 3 1 370.3 264.5 285.66
138 3 2 370.3 266.4573 285.66
139 3 1 375.59 264.5 285.66
140 3 2 375.59 266.4573 285.66
141 3 1 380.88 264.5 285.66
142 3 2 380.88 266.4573 285.66
143 3 1 386.17 264.5 285.66
144 3 2 386.17 266.4573 285.66
145 4 1 264.5 264.5 296.24
146 4 2 264.5 266.4573 296.24
147 4 1 269.79 264.5 296.24
148 4 2 269.79 266.4573 296.24
149 4 1 275.08 264.5 296.24
150 4 2 275.08 266.4573 296.24
151 4 1 280.37 264.5 296.24
152 4 2 280.37 266.4573 296.24
153 4 1 285.66 264.5 296.24
154 4 2 285.66 266.4573 296.24
155 4 1 290.95 264.5 296.24
156 4 2 290.95 266.4573 296.24
157 4 1 296.24 264.5 296.24
158 4 2 296.24 266.4573 296.24
159 4 1 301.53000000000003 264.5 296.24
160 4 2 301.53000000000003 266.4573 296.24
161 4 1 306.82 264.5 296.24
162 4 2 306.82 266.4573 296.24
163 4 1 312.11 264.5 296.24
164 4 2 312.11 266.4573 296.24
165 4 1 317.4 264.5 296.24
166 4 2 317.4 266.4573 296.24
167 4 1 322.69 264.5 296.24
168 4 2 322.69 266.4573 296.24
169 4 1 327.98 264.5 296.24
170 4 2 327.98 266.4573 296.24
171 4 1 333.27 264.5 296.24
172 4 2 333.27 266.4573 296.24
173 4 1 338.56 264.5 296.24
174 4 2 338.56 266.4573 296.24
175 4 1 343.85 264.5 296.24
176 4 2 343.85 266.4573 296.24
177 4 1 349.14 264.5 296.24
178 4 2 349.14 266.4573 296.24
179 4 1 354.43 264.5 296.24
180 4 2 354.43 266.4573 296.24
181 4 1 359.72 264.5 296.24
182 4 2 359.72 266.4573 296.24
183 4 1 365.01 264.5 296.24
184 4 2 365.01 266.4573 296.24
185 4 1 370.3 264.5 296.24
186 4 2 370.3 266.4573 296.24
187 4 1 375.59 264.5 296.24
188 4 2 375.59 266.4573 296.24
189 4 1 380.88 264.5 296.24
190 4 2 380.88 266.4573 296.24
191 4 1 386.17 264.5 296.24
192 4 2 386.17 266.4573 296.24
193 5 1 264.5 264.5 306.82
194 5 2 264.5 266.4573 306.82
195 5 1 269.79 264.5 306.82
196 5 2 269.79 266.4573 306.82
197 5 1 275.08 264.5 306.82
198 5 2 275.08 266.4573 306.82
199 5 1 280.37 264.5 306.82
200 5 2 280.37 266.4573 306.82
201 5 1 285.66 264.5 306.82
202 5 2 285.66 266.4573 306.82
203 5 1 290.95 264.5 306.82
204 5 2 290.95 266.4573 306.82
205 5 1 296.24 264.5 306.82
206 5 2 296.24 266.4573 306.82
207 5 1 301.53000000000003 264.5 306.82
208 5 2 301.53000000000003 266.4573 306.82
209 5 1 306.82 264.5 306.82
210 5 2 306.82 266.4573 306.82
211 5 1 312.11 264.5 306.82
212 5 2 312.11 266.4573 306.82
213 5 1 317.4 264.5 306.82
214 5 2 317.4 266.4573 306.82
215 5 1 322.69 264.5 306.82
216 5 2 322.69 266.4573 306.82
217 5 1 327.98 264.5 306.82
218 5 2 327.98 266.4573 306.82
219 5 1 333.27 264.5 306.82
220 5 2 333.27 266.4573 306.82
221 5 1 338.56 264.5 306.82
222 5 2 338.56 266.4573 306.82
223 5 1 343.85 264.5 306.82
224 5 2 343.85 266.4573 306.82
225 5 1 349.14 264.5 306.82
226 5 2 349.14 266.4573 306.82
227 5 1 354.43 264.5 306.82
228 5 2 354.43 266.4573 306.82
229 5 1 359.72 264.5 306.82
230 5 2 359.72 266.4573 306.82
231 5 1 365.01 264.5 306.82
232 5 2 365.01 266.4573 306.82
233 5 1 370.3 264.5 306.82
234 5 2 370.3 266.4573 306.82
235 5 1 375.59 264.5 306.82
236 5 2 375.59 266.4573 306.82
237 5 1 380.88 264.5 306.82
238 5 2 380.88 266.4573 306.82
239 5 1 386.17 264.5 306.82
240 5 2 386.17 266.4573 306.82
241 6 1 264.5 264.5 317.4
242 6 2 264.5 266.4573 317.4
243 6 1 269.79 264.5 317.4
244 6 2 269.79 266.4573 317.4
245 6 1 275.08 264.5 317.4
246 6 2 275.08 266.4573 317.4
247 6 1 280.37 264.5 317.4
248 6 2 280.37 266.4573 317.4
249 6 1 285.66 264.5 317.4
250 6 2 285.66 266.4573 317.4
251 6 1 290.95 264.5 317.4
252 6 2 290.95 266.4573 317.4
253 6 1 296.24 264.5 317.4
254 6 2 296.24 266.4573 317.4
255 6 1 301.53000000000003 264.5 317.4
256 6 2 301.53000000000003 266.4573 317.4
257 6 1 306.82 264.5 317.4
258 6 2 306.82 266.4573 317.4
259 6 1 312.11 264.5 317.4
260 6 2 312.11 266.4573 317.4
261 6 1 317.4 264.5 317.4
262 6 2 317.4 266.4573 317.4
263 6 1 322.69 264.5 317.4
264 6 2 322.69 266.4573 317.4
265 6 1 327.98 264.5 317.4
266 6 2 327.98 266.4573 317.4
267 6 1 333.27 264.5 317.4
268 6 2 333.27 266.4573 317.4
269 6 1 338.56 264.5 317.4
270 6 2 338.56 266.4573 317.4
271 6 1 343.85 264.5 317.4
272 6 2 343.85 266.4573 317.4
273 6 1 349.14 264.5 317.4
274 6 2 349.14 266.4573 317.4
275 6 1 354.43 264.5 317.4
276 6 2 354.43 266.4573 317.4
277 6 1 359.72 264.5 317.4
278 6 2 359.72 266.4573 317.4
279 6 1 365.01 264.5 317.4
280 6 2 365.01 266.4573 317.4
281 6 1 370.3 264.5 317.4
282 6 2 370.3 266.4573 317.4
283 6 1 375.59 264.5 317.4
284 6 2 375.59 266.4573 317.4
285 6 1 380.88 264.5 317.4
286 6 2 380.88 266.4573 317.4
287 6 1 386.17 264.5 317.4
288 6 2 386.17 266.4573 317.4
289 7 1 264.5 264.5 327.98
290 7 2 264.5 266.4573 327.98
291 7 1 269.79 264.5 327.98
292 7 2 269.79 266.4573 327.98
293 7 1 275.08 264.5 327.98
294 7 2 275.08 266.4573 327.98
295 7 1 280.37 264.5 327.98
296 7 2 280.37 266.4573 327.98
297 7 1 285.66 264.5 327.98
298 7 2 285.66 266.4573 327.98
299 7 1 290.95 264.5 327.98
300 7 2 290.95 266.4573 327.98
301 7 1 296.24 264.5 327.98
302 7 2 296.24 266.4573 327.98
303 7 1 301.53000000000003 264.5 327.98
304 7 2 301.53000000000003 266.4573 327.98
305 7 1 306.82 264.5 327.98
306 7 2 306.82 266.4573 327.98
307 7 1 312.11 264.5 327.98
308 7 2 312.11 266.4573 327.98
309 7 1 317.4 264.5 327.98
310 7 2 317.4 266.4573 327.98
311 7 1 322.69 264.5 327.98
312 7 2 322.69 266.4573 327.98
313 7 1 327.98 264.5 327.98
314 7 2 327.98 266.4573 327.98
315 7 1 333.27 264.5 327.98
316 7 2 333.27 266.4573 327.98
317 7 1 338.56 264.5 327.98
318 7 2 338.56 266.4573 327.98
319 7 1 343.85 264.5 327.98
320 7 2 343.85 266.4573 327.98
321 7 1 349.14 264.5 327.98
322 7 2 349.14 266.4573 327.98
323 7 1 354.43 264.5 327.98
324 7 2 354.43 266.4573 327.98
325 7 1 359.72 264.5 327.98
326 7 2 359.72 266.4573 327.98
327 7 1 365.01 264.5 327.98
328 7 2 365.01 266.4573 327.98
329 7 1 370.3 264.5 327.98
330 7 2 370.3 266.4573 327.98
331 7 1 375.59 264.5 327.98
332 7 2 375.59 266.4573 327.98
333 7 1 380.88 264.5 327.98
334 7 2 380.88 266.4573 327.98
335 7 1 386.17 264.5 327.98
336 7 2 386.17 266.4573 327.98
337 8 1 264.5 264.5 338.56
338 8 2 264.5 266.4573 338.56
339 8 1 269.79 264.5 338.56
340 8 2 269.79 266.4573 338.56
341 8 1 275.08 264.5 338.56
342 8 2 275.08 266.4573 338.56
343 8 1 280.37 264.5 338.56
344 8 2 280.37 266.4573 338.56
345 8 1 285.66 264.5 338.56
346 8 2 285.66 266.4573 338.56
347 8 1 290.95 264.5 338.56
348 8 2 290.95 266.4573 338.56
349 8 1 296.24 264.5 338.56
350 8 2 296.24 266.4573 338.56
351 8 1 301.53000000000003 264.5 338.56
352 8 2 301.53000000000003 266.4573 338.56
353 8 1 306.82 264.5 338.56
354 8 2 306.82 266.4573 338.56
355 8 1 312.11 264.5 338.56
356 8 2 312.11 266.4573 338.56
357 8 1 317.4 264.5 338.56
358 8 2 317.4 266.4573 338.56
359 8 1 322.69 264.5 338.56
360 8 2 322.69 266.4573 338.56
361 8 1 327.98 264.5 338.56
362 8 2 327.98 266.4573 338.56
363 8 1 333.27 264.5 338.56
364 8 2 333.27 266.4573 338.56
365 8 1 338.56 264.5 338.56
366 8 2 338.56 266.4573 338.56
367 8 1 343.85 264.5 338.56
368 8 2 343.85 266.4573 338.56
369 8 1 349.14 264.5 338.56
370 8 2 349.14 266.4573 338.56
371 8 1 354.43 264.5 338.56
372 8 2 354.43 266.4573 338.56
373 8 1 359.72 264.5 338.56
374 8 2 359.72 266.4573 338.56
375 8 1 365.01 264.5 338.56
376 8 2 365.01 266.4573 338.56
377 8 1 370.3 264.5 338.56
378 8 2 370.3 266.4573 338.56
379 8 1 375.59 264.5 338.56
380 8 2 375.59 266.4573 338.56
381 8 1 380.88 264.5 338.56
382 8 2 380.88 266.4573 338.56
383 8 1 386.17 264.5 338.56
384 8 2 386.17 266.4573 338.56
385 9 1 264.5 264.5 349.14
386 9 2 264.5 266.4573 349.14
387 9 1 269.79 264.5 349.14
388 9 2 269.79 266.4573 349.14
389 9 1 275.08 264.5 349.14
390 9 2 275.08 266.4573 349.14
391 9 1 280.37 264.5 349.14
392 9 2 280.37 266.4573 349.14
393 9 1 285.66 264.5 349.14
394 9 2 285.66 266.4573 349.14
395 9 1 290.95 264.5 349.14
396 9 2 290.95 266.4573 349.14
397 9 1 296.24 264.5 349.14
398 9 2 296.24 266.4573 349.14
399 9 1 301.53000000000003 264.5 349.14
400 9 2 301.53000000000003 266.4573 349.14
401 9 1 306.82 264.5 349.14
402 9 2 306.82 266.4573 349.14
403 9 1 312.11 264.5 349.14
404 9 2 312.11 266.4573 349.14
405 9 1 317.4 264.5 349.14
406 9 2 317.4 266.4573 349.14
407 9 1 322.69 264.5 349.14
408 9 2 322.69 266.4573 349.14
409 9 1 327.98 264.5 349.14
410 9 2 327.98 266.4573 349.14
411 9 1 333.27 264.5 349.14
412 9 2 333.27 266.4573 349.14
413 9 1 338.56 264.5 349.14
414 9 2 338.56 266.4573 349.14
415 9 1 343.85 264.5 349.14
416 9 2 343.85 266.4573 349.14
417 9 1 349.14 264.5 349.14
418 9 2 349.14 266.4573 349.14
419 9 1 354.43 264.5 349.14
420 9 2 354.43 266.4573 349.14
421 9 1 359.72 264.5 349.14
422 9 2 359.72 266.4573 349.14
423 9 1 365.01 264.5 349.14
424 9 2 365.01 266.4573 349.14
425 9 1 370.3 264.5 349.14
426 9 2 370.3 266.4573 349.14
427 9 1 375.59 264.5 349.14
428 9 2 375.59 266.4573 349.14
429 9 1 380.88 264.5 349.14
430 9 2 380.88 266.4573 349.14
431 9 1 386.17 264.5 349.14
432 9 2 386.17 266.4573 349.14
433 10 1 264.5 264.5 359.72
434 10 2 264.5 266.4573 359.72
435 10 1 269.79 264.5 359.72
436 10 2 269.79 266.4573 359.72
437 10 1 275.08 264.5 359.72
438 10 2 275.08 266.4573 359.72
439 10 1 280.37 264.5 359.72
440 10 2 280.37 266.4573 359.72
441 10 1 285.66 264.5 359.72
442 10 2 285.66 266.4573 359.72
443 10 1 290.95 264.5 359.72
444 10 2 290.95 266.4573 359.72
445 10 1 296.24 264.5 359.72
446 10 2 296.24 266.4573 359.72
447 10 1 301.53000000000003 264.5 359.72
448 10 2 301.53000000000003 266.4573 359.72
449 10 1 306.82 264.5 359.72
450 10 2 306.82 266.4573 359.72
451 10 1 312.11 264.5 359.72
452 10 2 312.11 266.4573 359.72
453 10 1 317.4 264.5 359.72
454 10 2 317.4 266.4573 359.72
455 10 1 322.69 264.5 359.72
456 10 2 322.69 266.4573 359.72
457 10 1 327.98 264.5 359.72
458 10 2 327.98 266.4573 359.72
459 10 1 333.27 264.5 359.72
460 10 2 333.27 266.4573 359.72
461 10 1 338.56 264.5 359.72
462 10 2 338.56 266.4573 359.72
463 10 1 343.85 264.5 359.72
464 10 2 343.85 266.4573 359.72
465 10 1 349.14 264.5 359.72
466 10 2 349.14 266.4573 359.72
467 10 1 354.43 264.5 359.72
468 10 2 354.43 266.4573 359.72
469 10 1 359.72 264.5 359.72
470 10 2 359.72 266.4573 359.72
471 10 1 365.01 264.5 359.72
472 10 2 365.01 266.4573 359.72
473 10 1 370.3 264.5 359.72
474 10 2 370.3 266.4573 359.72
475 10 1 375.59 264.5 359.72
476 10 2 375.59 266.4573 359.72
477 10 1 380.88 264.5 359.72
478 10 2 380.88 266.4573 359.72
479 10 1 386.17 264.5 359.72
480 10 2 386.17 266.4573 359.72
481 11 1 264.5 275.08 264.5
482 11 2 264.5 277.0373 264.5
483 11 1 269.79 275.08 264.5
484 11 2 269.79 277.0373 264.5
485 11 1 275.08 275.08 264.5
486 11 2 275.08 277.0373 264.5
487 11 1 280.37 275.08 264.5
488 11 2 280.37 277.0373 264.5
489 11 1 285.66 275.08 264.5
490 11 2 285.66 277.0373 264.5
491 11 1 290.95 275.08 264.5
492 11 2 290.95 277.0373 264.5
493 11 1 296.24 275.08 264.5
494 11 2 296.24 277.0373 264.5
495 11 1 301.53000000000003 275.08 264.5
496 11 2 301.53000000000003 277.0373 264.5
497 11 1 306.82 275.08 264.5
498 11 2 306.82 277.0373 264.5
499 11 1 312.11 275.08 264.5
500 11 2 312.11 277.0373 264.5
501 11 1 317.4 275.08 264.5
502 11 2 317.4 277.0373 264.5
503 11 1 322.69 275.08 264.5
504 11 2 322.69 277.0373 264.5
505 11 1 327.98 275.08 264.5
506 11 2 327.98 277.0373 264.5
507 11 1 333.27 275.08 264.5
508 11 2 333.27 277.0373 264.5
509 11 1 338.56 275.08 264.5
510 11 2 338.56 277.0373 264.5
511 11 1 343.85 275.08 264.5
512 11 2 343.85 277.0373 264.5
513 11 1 349.14 275.08 264.5
514 11 2 349.14 277.0373 264.5
515 11 1 354.43 275.08 264.5
516 11 2 354.43 277.0373 264.5
517 11 1 359.72 275.08 264.5
518 11 2 359.72 277.0373 264.5
519 11 1 365.01 275.08 264.5
520 11 2 365.01 277.0373 264.5
521 11 1 370.3 275.08 264.5
522 11 2 370.3 277.0373 264.5
523 11 1 375.59 275.08 264.5
524 11 2 375.59 277.0373 264.5
525 11 1 380.88 275.08 264.5
526 11 2 380.88 277.0373 264.5
527 11 1 386.17 275.08 264.5
528 11 2 386.17 277.0373 264.5
529 12 1 264.5 275.08 275.08
530 12 2 264.5 277.0373 275.08
531 12 1 269.79 275.08 275.08
532 12 2 269.79 277.0373 275.08
533 12 1 275.08 275.08 275.08
534 12 2 275.08 277.0373 275.08
535 12 1 280.37 275.08 275.08
536 12 2 280.37 277.0373 275.08
537 12 1 285.66 275.08 275.08
538 12 2 285.66 277.0373 275.08
539 12 1 290.95 275.08 275.08
540 12 2 290.95 277.0373 275.08
541 12 1 296.24 275.08 275.08
542 12 2 296.24 277.0373 275.08
543 12 1 301.53000000000003 275.08 275.08
544 12 2 301.53000000000003 277.0373 275.08
545 12 1 306.82 275.08 275.08
546 12 2 306.82 277.0373 275.08
547 12 1 312.11 275.08 275.08
548 12 2 312.11 277.0373 275.08
549 12 1 317.4 275.08 275.08
550 12 2 317.4 277.0373 275.08
551 12 1 322.69 275.08 275.08
552 12 2 322.69 277.0373 275.08
553 12 1 327.98 275.08 275.08
554 12 2 327.98 277.0373 275.08
555 12 1 333.27 275.08 275.08
556 12 2 333.27 277.0373 275.08
557 12 1 338.56 275.08 275.08
558 12 2 338.56 277.0373 275.08
559 12 1 343.85 275.08 275.08
560 12 2 343.85 277.0373 275.08
561 12 1 349.14 275.08 275.08
562 12 2 349.14 277.0373 275.08
563 12 1 354.43 275.08 275.08
564 12 2 354.43 277.0373 275.08
565 12 1 359.72 275.08 275.08
566 12 2 359.72 277.0373 275.08
567 12 1 365.01 275.08 275.08
568 12 2 365.01 277.0373 275.08
569 12 1 370.3 275.08 275.08
570 12 2 370.3 277.0373 275.08
571 12 1 375.59 275.08 275.08
572 12 2 375.59 277.0373 275.08
573 12 1 380.88 275.08 275.08
574 12 2 380.88 277.0373 275.08
575 12 1 386.17 275.08 275.08
576 12 2 386.17 277.0373 275.08
577 13 1 264.5 275.08 285.66
578 13 2 264.5 277.0373 285.66
579 13 1 269.79 275.08 285.66
580 13 2 269.79 277.0373 285.66
581 13 1 275.08 275.08 285.66
582 13 2 275.08 277.0373 285.66
583 13 1 280.37 275.08 285.66
584 13 2 280.37 277.0373 285.66
585 13 1 285.66 275.08 285.66
586 13 2 285.66 277.0373 285.66
587 13 1 290.95 275.08 285.66
588 13 2 290.95 277.0373 285.66
589 13 1 296.24 275.08 285.66
590 13 2 296.24 277.0373 285.66
591 13 1 301.53000000000003 275.08 285.66
592 13 2 301.53000000000003 277.0373 285.66
593 13 1 306.82 275.08 285.66
594 13 2 306.82 277.0373 285.66
595 13 1 312.11 275.08 285.66
596 13 2 312.11 277.0373 285.66
597 13 1 317.4 275.08 285.66
598 13 2 317.4 277.0373 285.66
599 13 1 322.69 275.08 285.66
600 13 2 322.69 277.0373 285.66
601 13 1 327.98 275.08 285.66
602 13 2 327.98 277.0373 285.66
603 13 1 333.27 275.08 285.66
604 13 2 333.27 277.0373 285.66
605 13 1 338.56 275.08 285.66
606 13 2 338.56 277.0373 285.66
607 13 1 343.85 275.08 285.66
608 13 2 343.85 277.0373 285.66
609 13 1 349.14 275.08 285.66
610 13 2 349.14 277.0373 285.66
611 13 1 354.43 275.08 285.66
612 13 2 354.43 277.0373 285.66
613 13 1 359.72 275.08 285.66
614 13 2 359.72 277.0373 285.66
615 13 1 365.01 275.08 285.66
616 13 2 365.01 277.0373 285.66
617 13 1 370.3 275.08 285.66
618 13 2 370.3 277.0373 285.66
619 13 1 375.59 275.08 285.66
620 13 2 375.59 277.0373 285.66
621 13 1 380.88 275.08 285.66
622 13 2 380.88 277.0373 285.66
623 13 1 386.17 275.08 285.66
624 13 2 386.17 277.0373 285.66
625 14 1 264.5 275.08 296.24
626 14 2 264.5 277.0373 296.24
627 14 1 269.79 275.08 296.24
628 14 2 269.79 277.0373 296.24
629 14 1 275.08 275.08 296.24
630 14 2 275.08 277.0373 296.24
631 14 1 280.37 275.08 296.24
632 14 2 280.37 277.0373 296.24
633 14 1 285.66 275.08 296.24
634 14 2 285.66 277.0373 296.24
635 14 1 290.95 275.08 296.24
636 14 2 290.95 277.0373 296.24
637 14 1 296.24 275.08 296.24
638 14 2 296.24 277.0373 296.24
639 14 1 301.53000000000003 275.08 296.24
640 14 2 301.53000000000003 277.0373 296.24
641 14 1 306.82 275.08 296.24
642 14 2 306.82 277.0373 296.24
643 14 1 312.11 275.08 296.24
644 14 2 312.11 277.0373 296.24
645 14 1 317.4 275.08 296.24
646 14 2 317.4 277.0373 296.24
647 14 1 322.69 275.08 296.24
648 14 2 322.69 277.0373 296.24
649 14 1 327.98 275.08 296.24
650 14 2 327.98 277.0373 296.24
651 14 1 333.27 275.08 296.24
652 14 2 333.27 277.0373 296.24
653 14 1 338.56 275.08 296.24
654 14 2 338.56 277.0373 296.24
655 14 1 343.85 275.08 296.24
656 14 2 343.85 277.0373 296.24
657 14 1 349.14 275.08 296.24
658 14 2 349.14 277.0373 296.24
659 14 1 354.43 275.08 296.24
660 14 2 354.43 277.0373 296.24
661 14 1 359.72 275.08 296.24
662 14 2 359.72 277.0373 296.24
663 14 1 365.01 275.08 296.24
664 14 2 365.01 277.0373 296.24
665 14 1 370.3 275.08 296.24
666 14 2 370.3 277.0373 296.24
667 14 1 375.59 275.08 296.24
668 14 2 375.59 277.0373 296.24
669 14 1 380.88 275.08 296.24
670 14 2 380.88 277.0373 296.24
671 14 1 386.17 275.08 296.24
672 14 2 386.17 277.0373 296.24
673 15 1 264.5 275.08 306.82
674 15 2 264.5 277.0373 306.82
675 15 1 269.79 275.08 306.82
676 15 2 269.79 277.0373 306.82
677 15 1 275.08 275.08 306.82
678 15 2 275.08 277.0373 306.82
679 15 1 280.37 275.08 306.82
680 15 2 280.37 277.0373 306.82
681 15 1 285.66 275.08 306.82
682 15 2 285.66 277.0373 306.82
683 15 1 290.95 275.08 306.82
684 15 2 290.95 277.0373 306.82
685 15 1 296.24 275.08 306.82
686 15 2 296.24 277.0373 306.82
687 15 1 301.53000000000003 275.08 306.82
688 15 2 301.53000000000003 277.0373 306.82
689 15 1 306.82 275.08 306.82
690 15 2 306.82 277.0373 306.82
691 15 1 312.11 275.08 306.82
692 15 2 312.11 277.0373 306.82
693 15 1 317.4 275.08 306.82
694 15 2 317.4 277.0373 306.82
695 15 1 322.69 275.08 306.82
696 15 2 322.69 277.0373 306.82
697 15 1 327.98 275.08 306.82
698 15 2 327.98 277.0373 306.82
699 15 1 333.27 275.08 306.82
700 15 2 333.27 277.0373 306.82
701 15 1 338.56 275.08 306.82
702 15 2 338.56 277.0373 306.82
703 15 1 343.85 275.08 306.82
704 15 2 343.85 277.0373 306.82
705 15 1 349.14 275.08 306.82
706 15 2 349.14 277.0373 306.82
707 15 1 354.43 275.08 306.82
708 15 2 354.43 277.0373 306.82
709 15 1 359.72 275.08 306.82
710 15 2 359.72 277.0373 306.82
711 15 1 365.01 275.08 306.82
712 15 2 365.01 277.0373 306.82
713 15 1 370.3 275.08 306.82
714 15 2 370.3 277.0373 306.82
715 15 1 375.59 275.08 306.82
716 15 2 375.59 277.0373 306.82
717 15 1 380.88 275.08 306.82
718 15 2 380.88 277.0373 306.82
719 15 1 386.17 275.08 306.82
720 15 2 386.17 277.0373 306.82
721 16 1 264.5 275.08 317.4
722 16 2 264.5 277.0373 317.4
723 16 1 269.79 275.08 317.4
724 16 2 269.79 277.0373 317.4
725 16 1 275.08 275.08 317.4
726 16 2 275.08 277.0373 317.4
727 16 1 280.37 275.08 317.4
728 16 2 280.37 277.0373 317.4
729 16 1 285.66 275.08 317.4
730 16 2 285.66 277.0373 317.4
731 16 1 290.95 275.08 317.4
732 16 2 290.95 277.0373 317.4
733 16 1 296.24 275.08 317.4
734 16 2 296.24 277.0373 317.4
735 16 1 301.53000000000003 275.08 317.4
736 16 2 301.53000000000003 277.0373 317.4
737 16 1 306.82 275.08 317.4
738 16 2 306.82 277.0373 317.4
739 16 1 312.11 275.08 317.4
740 16 2 312.11 277.0373 317.4
741 16 1 317.4 275.08 317.4
742 16 2 317.4 277.0373 317.4
743 16 1 322.69 275.08 317.4
744 16 2 322.69 277.0373 317.4
745 16 1 327.98 275.08 317.4
746 16 2 327.98 277.0373 317.4
747 16 1 333.27 275.08 317.4
748 16 2 333.27 277.0373 317.4
749 16 1 338.56 275.08 317.4
750 16 2 338.56 277.0373 317.4
751 16 1 343.85 275.08 317.4
752 16 2 343.85 277.0373 317.4
753 16 1 349.14 275.08 317.4
754 16 2 349.14 277.0373 317.4
755 16 1 354.43 275.08 317.4
756 16 2 354.43 277.0373 317.4
757 16 1 359.72 275.08 317.4
758 16 2 359.72 277.0373 317.4
759 16 1 365.01 275.08 317.4
760 16 2 365.01 277.0373 317.4
761 16 1 370.3 275.08 317.4
762 16 2 370.3 277.0373 317.4
763 16 1 375.59 275.08 317.4
764 16 2 375.59 277.0373 317.4
765 16 1 380.88 275.08 317.4
766 16 2 380.88 277.0373 317.4
767 16 1 386.17 275.08 317.4
768 16 2 386.17 277.0373 317.4
769 17 1 264.5 275.08 327.98
770 17 2 264.5 277.0373 327.98
771 17 1 269.79 275.08 327.98
772 17 2 269.79 277.0373 327.98
773 17 1 275.08 275.08 327.98
774 17 2 275.08 277.0373 327.98
775 17 1 280.37 275.08 327.98
776 17 2 280.37 277.0373 327.98
777 17 1 285.66 275.08 327.98
778 17 2 285.66 277.0373 327.98
779 17 1 290.95 275.08 327.98
780 17 2 290.95 277.0373 327.98
781 17 1 296.24 275.08 327.98
782 17 2 296.24 277.0373 327.98
783 17 1 301.53000000000003 275.08 327.98
784 17 2 301.53000000000003 277.0373 327.98
785 17 1 306.82 275.08 327.98
786 17 2 306.82 277.0373 327.98
787 17 1 312.11 275.08 327.98
788 17 2 312.11 277.0373 327.98
789 17 1 317.4 275.08 327.98
790 17 2 317.4 277.0373 327.98
791 17 1 322.69 275.08 327.98
792 17 2 322.69 277.0373 327.98
793 17 1 327.98 275.08 327.98
794 17 2 327.98 277.0373 327.98
795 17 1 333.27 275.08 327.98
796 17 2 333.27 277.0373 327.98
797 17 1 338.56 275.08 327.98
798 17 2 338.56 277.0373 327.98
799 17 1 343.85 275.08 327.98
800 17 2 343.85 277.0373 327.98
801 17 1 349.14 275.08 327.98
802 17 2 349.14 277.0373 327.98
803 17 1 354.43 275.08 327.98
804 17 2 354.43 277.0373 327.98
805 17 1 359.72 275.08 327.98
806 17 2 359.72 277.0373 327.98
807 17 1 365.01 275.08 327.98
808 17 2 365.01 277.0373 327.98
809 17 1 370.3 275.08 327.98
810 17 2 370.3 277.0373 327.98
811 17 1 375.59 275.08 327.98
812 17 2 375.59 277.0373 327.98
813 17 1 380.88 275.08 327.98
814 17 2 380.88 277.0373 327.98
815 17 1 386.17 275.08 327.98
816 17 2 386.17 277.0373 327.98
817 18 1 264.5 275.08 338.56
818 18 2 264.5 277.0373 338.56
819 18 1 269.79 275.08 338.56
820 18 2 269.79 277.0373 338.56
821 18 1 275.08 275.08 338.56
822 18 2 275.08 277.0373 338.56
823 18 1 280.37 275.08 338.56
824 18 2 280.37 277.0373 338.56
825 18 1 285.66 275.08 338.56
826 18 2 285.66 277.0373 338.56
827 18 1 290.95 275.08 338.56
828 18 2 290.95 277.0373 338.56
829 18 1 296.24 275.08 338.56
830 18 2 296.24 277.0373 338.56
831 18 1 301.53000000000003 275.08 338.56
832 18 2 301.53000000000003 277.0373 338.56
833 18 1 306.82 275.08 338.56
834 18 2 306.82 277.0373 338.56
835 18 1 312.11 275.08 338.56
836 18 2 312.11 277.0373 338.56
837 18 1 317.4 275.08 338.56
838 18 2 317.4 277.0373 338.56
839 18 1 322.69 275.08 338.56
840 18 2 322.69 277.0373 338.56
841 18 1 327.98 275.08 338.56
842 18 2 327.98 277.0373 338.56
843 18 1 333.27 275.08 338.56
844 18 2 333.27 277.0373 338.56
845 18 1 338.56 275.08 338.56
846 18 2 338.56 277.0373 338.56
847 18 1 343.85 275.08 338.56
848 18 2 343.85 277.0373 338.56
849 18 1 349.14 275.08 338.56
850 18 2 349.14 277.0373 338.56
851 18 1 354.43 275.08 338.56
852 18 2 354.43 277.0373 338.56
853 18 1 359.72 275.08 338.56
854 18 2 359.72 277.0373 338.56
855 18 1 365.01 275.08 338.56
856 18 2 365.01 277.0373 338.56
857 18 1 370.3 275.08 338.56
858 18 2 370.3 277.0373 338.56
859 18 1 375.59 275.08 338.56
860 18 2 375.59 277.0373 338.56
861 18 1 380.88 275.08 338.56
862 18 2 380.88 277.0373 338.56
863 18 1 386.17 275.08 338.56
864 18 2 386.17 277.0373 338.56
865 19 1 264.5 275.08 349.14
866 19 2 264.5 277.0373 349.14
867 19 1 269.79 275.08 349.14
868 19 2 269.79 277.0373 349.14
869 19 1 275.08 275.08 349.14
870 19 2 275.08 277.0373 349.14
871 19 1 280.37 275.08 349.14
872 19 2 280.37 277.0373 349.14
873 19 1 285.66 275.08 349.14
874 19 2 285.66 277.0373 349.14
875 19 1 290.95 275.08 349.14
876 19 2 290.95 277.0373 349.14
877 19 1 296.24 275.08 349.14
878 19 2 296.24 277.0373 349.14
879 19 1 301.53000000000003 275.08 349.14
880 19 2 301.53000000000003 277.0373 349.14
881 19 1 306.82 275.08 349.14
882 19 2 306.82 277.0373 349.14
883 19 1 312.11 275.08 349.14
884 19 2 312.11 277.0373 349.14
885 19 1 317.4 275.08 349.14
886 19 2 317.4 277.0373 349.14
887 19 1 322.69 275.08 349.14
888 19 2 322.69 277.0373 349.14
889 19 1 327.98 275.08 349.14
890 19 2 327.98 277.0373 349.14
891 19 1 333.27 275.08 349.14
892 19 2 333.27 277.0373 349.14
893 19 1 338.56 275.08 349.14
894 19 2 338.56 277.0373 349.14
895 19 1 343.85 275.08 349.14
896 19 2 343.85 277.0373 349.14
897 19 1 349.14 275.08 349.14
898 19 2 349.14 277.0373 349.14
899 19 1 354.43 275.08 349.14
900 19 2 354.43 277.0373 349.14
901 19 1 359.72 275.08 349.14
902 19 2 359.72 277.0373 349.14
903 19 1 365.01 275.08 349.14
904 19 2 365.01 277.0373 349.14
905 19 1 370.3 275.08 349.14
906 19 2 370.3 277.0373 349.14
907 19 1 375.59 275.08 349.14
908 19 2 375.59 277.0373 349.14
909 19 1 380.88 275.08 349.14
910 19 2 380.88 277.0373 349.14
911 19 1 386.17 275.08 349.14
912 19 2 386.17 277.0373 349.14
913 20 1 264.5 275.08 359.72
914 20 2 264.5 277.0373 359.72
915 20 1 269.79 275.08 359.72
916 20 2 269.79 277.0373 359.72
917 20 1 275.08 275.08 359.72
918 20 2 275.08 277.0373 359.72
919 20 1 280.37 275.08 359.72
920 20 2 280.37 277.0373 359.72
921 20 1 285.66 275.08 359.72
922 20 2 285.66 277.0373 359.72
923 20 1 290.95 275.08 359.72
924 20 2 290.95 277.0373 359.72
925 20 1 296.24 275.08 359.72
926 20 2 296.24 277.0373 359.72
927 20 1 301.53000000000003 275.08 359.72
928 20 2 301.53000000000003 277.0373 359.72
929 20 1 306.82 275.08 359.72
930 20 2 306.82 277.0373 359.72
931 20 1 312.11 275.08 359.72
932 20 2 312.11 277.0373 359.72
933 20 1 317.4 275.08 359.72
934 20 2 317.4 277.0373 359.72
935 20 1 322.69 275.08 359.72
936 20 2 322.69 277.0373 359.72
937 20 1 327.98 275.08 359.72
938 20 2 327.98 277.0373 359.72
939 20 1 333.27 275.08 359.72
940 20 2 333.27 277.0373 359.72
941 20 1 338.56 275.08 359.72
942 20 2 338.56 277.0373 359.72
943 20 1 343.85 275.08 359.72
944 20 2 343.85 277.0373 359.72
945 20 1 349.14 275.08 359.72
946 20 2 349.14 277.0373 359.72
947 20 1 354.43 275.08 359.72
948 20 2 354.43 277.0373 359.72
949 20 1 359.72 275.08 359.72
950 20 2 359.72 277.0373 359.72
951 20 1 365.01 275.08 359.72
952 20 2 365.01 277.0373 359.72
953 20 1 370.3 275.08 359.72
954 20 2 370.3 277.0373 359.72
955 20 1 375.59 275.08 359.72
956 20 2 375.59 277.0373 359.72
957 20 1 380.88 275.08 359.72
958 20 2 380.88 277.0373 359.72
959 20 1 386.17 275.08 359.72
960 20 2 386.17 277.0373 359.72
961 21 1 264.5 285.66 264.5
962 21 2 264.5 287.6173 264.5
963 21 1 269.79 285.66 264.5
964 21 2 269.79 287.6173 264.5
965 21 1 275.08 285.66 264.5
966 21 2 275.08 287.6173 264.5
967 21 1 280.37 285.66 264.5
968 21 2 280.37 287.6173 264.5
969 21 1 285.66 285.66 264.5
970 21 2 285.66 287.6173 264.5
971 21 1 290.95 285.66 264.5
972 21 2 290.95 287.6173 264.5
973 21 1 296.24 285.66 264.5
974 21 2 296.24 287.6173 264.5
975 21 1 301.53000000000003 285.66 264.5
976 21 2 301.53000000000003 287.6173 264.5
977 21 1 306.82 285.66 264.5
978 21 2 306.82 287.6173 264.5
979 21 1 312.11 285.66 264.5
980 21 2 312.11 287.6173 264.5
981 21 1 317.4 285.66 264.5